source_pt,idx,formula,n_atom,a,b,c,alpha,beta,gamma,density
eval_gen_partial_FM3_005.pt,4,KRb3Na4SrLi6Ca2Ti5MnAl4TlCdCoSnGe2Pb(O8F9)3,85,5.513921737670898,6.408301830291748,6.53172492980957,115.4757080078125,88.93450164794922,89.45016479492188,21.868342794225764
eval_gen_partial_FM3_005.pt,5,CsKRbNa3Ca2LaCeGdDyY2Lu3ZrTiNb2CdInAg2GeB3Se7S6(O10F3)2,68,5.59124755859375,5.819944858551025,6.988720893859863,65.01473236083984,68.34773254394531,61.43891525268556,35.27163639115966
eval_gen_partial_FM3_006.pt,1,K3Na2Sr4Li4CaDy3ScMn2NbCo4B3SbAs3WC2BrO41F8,85,6.664382934570313,6.6767754554748535,6.491692066192627,66.84469604492188,66.74044036865234,72.15884399414062,20.939402369763382
eval_gen_partial_FM3_006.pt,2,Cs4Rb4Na2Li4Ca4La2NdYAl2FeReSiMoPPb2(O3F2)8,71,4.13657283782959,6.794890403747559,7.2570600509643555,112.83836364746094,89.98456573486328,91.37944030761719,28.027546053685402
eval_gen_partial_FM3_006.pt,3,Na2Li2Ca4La2Yb2EuMg2Ta3MnCr2FeHgBiRu2(S2O7)4,62,3.204730033874512,3.3814294338226314,11.080694198608398,87.12442016601562,89.12820434570312,111.62092590332031,46.478251845005026
eval_gen_partial_FM3_006.pt,4,KRb3Na4SrLi6Ca2Ti5MnAl4TlCdCoSnGe2Pb(O8F9)3,85,5.513921737670898,6.408301830291748,6.53172492980957,115.4757080078125,88.93450164794922,89.45016479492188,21.868342794225764
eval_gen_partial_FM3_006.pt,5,CsKRbNa3Ca2LaCeGdDyY2Lu3ZrTiNb2CdInAg2GeB3Se7S6(O10F3)2,68,5.59124755859375,5.819944858551025,6.988720893859863,65.01473236083984,68.34773254394531,61.43891525268556,35.27163639115966
eval_gen_partial_FM3_006.pt,6,CsRbBaNa3Sr3Li4Ca4SmY4U3Ti2V3Co2Ni2MoRuW2Cl4(O5F)9,96,6.372600078582763,6.494809150695802,7.298175811767578,100.52937316894531,96.60678100585936,91.79326629638672,23.54527384799051
eval_gen_FM4.pt,1,K2Rb2NaLi3Ce4PrSm4EuDy3LuTiAl3CoS13O20F9,69,5.605348110198975,6.220733642578124,6.324330806732178,91.13249969482422,69.24311828613281,68.6673583984375,30.75836214695028
eval_gen_FM4.pt,2,RbBaTbCeSm2DyY2LuSc3TaTiAl4Zn4BiS3(O4F)7,62,3.611844539642334,5.692644119262696,6.741891384124756,98.39829254150392,90.05755615234375,92.44307708740236,35.84245126215228
eval_gen_FM4.pt,3,BaCaCe3GdTh3UAlSiS2Cl8O13F2,37,3.8828871250152583,3.9355196952819824,6.2013349533081055,90.80566406250001,91.01332855224611,93.8864974975586,41.07353308120563
eval_gen_FM4.pt,4,KLaSmGd2DyLu2HfZrTiAl2TlHCl5O19F3,42,5.242981433868408,5.3585357666015625,5.3513360023498535,74.17855072021484,76.42354583740234,79.17478942871094,27.05207781693645
eval_gen_FM4.pt,5,Sr2CaLa4Ce2Nd6Y3ScTaBeAlNi3Br2(O7F)4,59,5.221008300781249,5.4592084884643555,5.975645542144775,115.06410217285158,89.7510757446289,89.11318969726562,35.57951315101722
eval_gen_FM4.pt,6,RbBaLaSm5Y8Mn2Al4CdSi3S2(O17F3)2,68,5.902240753173828,6.039247989654541,7.548240661621094,99.78105163574219,90.92654418945312,91.39220428466795,18.555302888204164
eval_gen_partial_FM4_001.pt,1,K2Rb2NaLi3Ce4PrSm4EuDy3LuTiAl3CoS13O20F9,69,5.605348110198975,6.220733642578124,6.324330806732178,91.13249969482422,69.24311828613281,68.6673583984375,30.75836214695028
eval_gen_partial_FM4_002.pt,1,K2Rb2NaLi3Ce4PrSm4EuDy3LuTiAl3CoS13O20F9,69,5.605348110198975,6.220733642578124,6.324330806732178,91.13249969482422,69.24311828613281,68.6673583984375,30.75836214695028
eval_gen_partial_FM4_002.pt,2,RbBaTbCeSm2DyY2LuSc3TaTiAl4Zn4BiS3(O4F)7,62,3.611844539642334,5.692644119262696,6.741891384124756,98.39829254150392,90.05755615234375,92.44307708740236,35.84245126215228
eval_gen_partial_FM4_003.pt,1,K2Rb2NaLi3Ce4PrSm4EuDy3LuTiAl3CoS13O20F9,69,5.605348110198975,6.220733642578124,6.324330806732178,91.13249969482422,69.24311828613281,68.6673583984375,30.75836214695028
eval_gen_partial_FM4_003.pt,2,RbBaTbCeSm2DyY2LuSc3TaTiAl4Zn4BiS3(O4F)7,62,3.611844539642334,5.692644119262696,6.741891384124756,98.39829254150392,90.05755615234375,92.44307708740236,35.84245126215228
eval_gen_partial_FM4_003.pt,3,BaCaCe3GdTh3UAlSiS2Cl8O13F2,37,3.8828871250152583,3.9355196952819824,6.2013349533081055,90.80566406250001,91.01332855224611,93.8864974975586,41.07353308120563
eval_gen_partial_FM4_004.pt,1,K2Rb2NaLi3Ce4PrSm4EuDy3LuTiAl3CoS13O20F9,69,5.605348110198975,6.220733642578124,6.324330806732178,91.13249969482422,69.24311828613281,68.6673583984375,30.75836214695028
eval_gen_partial_FM4_004.pt,2,RbBaTbCeSm2DyY2LuSc3TaTiAl4Zn4BiS3(O4F)7,62,3.611844539642334,5.692644119262696,6.741891384124756,98.39829254150392,90.05755615234375,92.44307708740236,35.84245126215228
eval_gen_partial_FM4_004.pt,3,BaCaCe3GdTh3UAlSiS2Cl8O13F2,37,3.8828871250152583,3.9355196952819824,6.2013349533081055,90.80566406250001,91.01332855224611,93.8864974975586,41.07353308120563
eval_gen_partial_FM4_004.pt,4,KLaSmGd2DyLu2HfZrTiAl2TlHCl5O19F3,42,5.242981433868408,5.3585357666015625,5.3513360023498535,74.17855072021484,76.42354583740234,79.17478942871094,27.05207781693645
eval_gen_partial_FM4_005.pt,1,K2Rb2NaLi3Ce4PrSm4EuDy3LuTiAl3CoS13O20F9,69,5.605348110198975,6.220733642578124,6.324330806732178,91.13249969482422,69.24311828613281,68.6673583984375,30.75836214695028
eval_gen_partial_FM4_005.pt,2,RbBaTbCeSm2DyY2LuSc3TaTiAl4Zn4BiS3(O4F)7,62,3.611844539642334,5.692644119262696,6.741891384124756,98.39829254150392,90.05755615234375,92.44307708740236,35.84245126215228
eval_gen_partial_FM4_005.pt,3,BaCaCe3GdTh3UAlSiS2Cl8O13F2,37,3.8828871250152583,3.9355196952819824,6.2013349533081055,90.80566406250001,91.01332855224611,93.8864974975586,41.07353308120563
eval_gen_partial_FM4_005.pt,4,KLaSmGd2DyLu2HfZrTiAl2TlHCl5O19F3,42,5.242981433868408,5.3585357666015625,5.3513360023498535,74.17855072021484,76.42354583740234,79.17478942871094,27.05207781693645
eval_gen_partial_FM4_005.pt,5,Sr2CaLa4Ce2Nd6Y3ScTaBeAlNi3Br2(O7F)4,59,5.221008300781249,5.4592084884643555,5.975645542144775,115.06410217285158,89.7510757446289,89.11318969726562,35.57951315101722
eval_gen_partial_FM4_006.pt,1,K2Rb2NaLi3Ce4PrSm4EuDy3LuTiAl3CoS13O20F9,69,5.605348110198975,6.220733642578124,6.324330806732178,91.13249969482422,69.24311828613281,68.6673583984375,30.75836214695028
eval_gen_partial_FM4_006.pt,2,RbBaTbCeSm2DyY2LuSc3TaTiAl4Zn4BiS3(O4F)7,62,3.611844539642334,5.692644119262696,6.741891384124756,98.39829254150392,90.05755615234375,92.44307708740236,35.84245126215228
eval_gen_partial_FM4_006.pt,3,BaCaCe3GdTh3UAlSiS2Cl8O13F2,37,3.8828871250152583,3.9355196952819824,6.2013349533081055,90.80566406250001,91.01332855224611,93.8864974975586,41.07353308120563
eval_gen_partial_FM4_006.pt,4,KLaSmGd2DyLu2HfZrTiAl2TlHCl5O19F3,42,5.242981433868408,5.3585357666015625,5.3513360023498535,74.17855072021484,76.42354583740234,79.17478942871094,27.05207781693645
eval_gen_partial_FM4_006.pt,5,Sr2CaLa4Ce2Nd6Y3ScTaBeAlNi3Br2(O7F)4,59,5.221008300781249,5.4592084884643555,5.975645542144775,115.06410217285158,89.7510757446289,89.11318969726562,35.57951315101722
eval_gen_partial_FM4_006.pt,6,RbBaLaSm5Y8Mn2Al4CdSi3S2(O17F3)2,68,5.902240753173828,6.039247989654541,7.548240661621094,99.78105163574219,90.92654418945312,91.39220428466795,18.555302888204164