source_pt,idx,formula,n_atom,a,b,c,alpha,beta,gamma,density
eval_gen_partial_FM2_002.pt,9,Li2CaCe2Y2MgInFe3Co8ReNiAg3BAsP2N7O20F11,67,5.777872562408446,5.787733078002929,6.32254695892334,106.57270812988281,83.77281188964842,88.57794189453125,21.743400221417367
eval_gen_partial_FM2_002.pt,10,Ca2CeY3TiZnFe2Co9ReNi2Ag3B3HN7O20F11,67,5.777872562408446,5.787733078002929,6.32254695892334,106.57270812988281,83.77281188964842,88.57794189453125,20.890297521793542
eval_gen_partial_FM2_002.pt,11,Cs2K4BaNaLi2Ca3TbU5Cu4Ag3BAsRhSeS22Cl6O7,65,6.165624618530274,6.473819255828857,7.146732807159424,115.885986328125,99.69436645507812,91.2577590942383,26.02156802445523
eval_gen_partial_FM2_002.pt,12,Cs2K5Ba2NaLiCa2U3MnCrInFeCu3BP3Rh2S23Cl7O6,65,6.165624618530274,6.473819255828857,7.146732807159424,115.885986328125,99.69436645507812,91.2577590942383,22.577324404973176
eval_gen_partial_FM2_002.pt,13,Cs2K5Ba2NaLiCaThU3CrCu4AgAsPRu2CS21Cl6O11,65,6.165624618530274,6.473819255828857,7.146732807159424,115.885986328125,99.69436645507812,91.2577590942383,23.426985342097133
eval_gen_partial_FM2_002.pt,14,CsK4BaNaLiCa3U6FeCu5Ag3WCS24Cl6O7,65,6.165624618530274,6.473819255828857,7.146732807159424,115.885986328125,99.69436645507812,91.2577590942383,26.358492434266907
eval_gen_partial_FM2_002.pt,15,Cs2K4Ba2NaLiCa2ThU2NbFe2Cu3Ag4GeRuRhWCS23(ClO)6,65,6.165624618530274,6.473819255828857,7.146732807159424,115.885986328125,99.69436645507812,91.2577590942383,25.488004555164967
eval_gen_partial_FM2_002.pt,16,Cs2K4Ba3Na2LiCaHoU3Cu2Ag4GeAs2PRuPtS19Cl7O10,65,6.165624618530274,6.473819255828857,7.146732807159424,115.885986328125,99.69436645507812,91.2577590942383,25.959104051638604
eval_gen_partial_FM2_002.pt,17,Cs2K4Ba2NaLi2CaErU5Fe2Cu2Ag2P2RuCS25(ClO)6,65,6.165624618530274,6.473819255828857,7.146732807159424,115.885986328125,99.69436645507812,91.2577590942383,25.55847785073013
eval_gen_partial_FM2_002.pt,18,K5Ba2Na2Li2CaErUNb2Fe2Cu3Ag2As2HRu3S23Cl6O7,65,6.165624618530274,6.473819255828857,7.146732807159424,115.885986328125,99.69436645507812,91.2577590942383,21.0980553962265
eval_gen_partial_FM2_002.pt,19,K5BaNa2LiCa2ThU4Cu4SiAg4AsRhSeS23NCl7O6,65,6.165624618530274,6.473819255828857,7.146732807159424,115.885986328125,99.69436645507812,91.2577590942383,24.536097071443702
eval_gen_partial_FM2_002.pt,20,Cs2K5BaNaLiCa2U4GaCu7As2PRu2S24(ClO)6,65,6.165624618530274,6.473819255828857,7.146732807159424,115.885986328125,99.69436645507812,91.2577590942383,24.010289269436072
eval_gen_partial_FM2_003.pt,1,LiY4Mg4TiZnFe3Co9ReAg2B2HN7O19F12,67,5.777872562408446,5.787733078002929,6.32254695892334,106.57270812988281,83.77281188964842,88.57794189453125,19.20234282451955
eval_gen_partial_FM2_003.pt,2,CeY4Mg3TiZnGaFe4Co8Re2Ag3HN7O18F13,67,5.777872562408446,5.787733078002929,6.32254695892334,106.57270812988281,83.77281188964842,88.57794189453125,22.925894281237408
eval_gen_partial_FM2_003.pt,3,Ce3TiAlZnGaFe4Co8NiAg3B2P3N8O19F12,67,5.777872562408446,5.787733078002929,6.32254695892334,106.57270812988281,83.77281188964842,88.57794189453125,20.362076196433
eval_gen_partial_FM2_003.pt,4,Li2Y4HoMg3ZnFe3Co8CuSiAgB3RhCN7ClO23F6,67,5.777872562408446,5.787733078002929,6.32254695892334,106.57270812988281,83.77281188964842,88.57794189453125,18.777122794379522
eval_gen_partial_FM2_003.pt,5,LiYbY3Ho2MgTiVZnCrFe3Co8Re2Ag2H2N7O19F12,67,5.777872562408446,5.787733078002929,6.32254695892334,106.57270812988281,83.77281188964842,88.57794189453125,23.749283244394515
eval_gen_partial_FM2_003.pt,6,CaCe2NdVZnCrFe2Co8Ni3Ag3B3AsP2N7Cl3(O11F3)2,67,5.777872562408446,5.787733078002929,6.32254695892334,106.57270812988281,83.77281188964842,88.57794189453125,21.100134472546898
eval_gen_partial_FM2_003.pt,7,LiCaCeY3MgTi2ZnCrFe3Co8Ag2B5N7ClO19F11,67,5.777872562408446,5.787733078002929,6.32254695892334,106.57270812988281,83.77281188964842,88.57794189453125,18.549839374982955
eval_gen_partial_FM2_003.pt,8,CaCeY3MgTiZnCrFe3Co9Ag3BiB4HN7(O3F2)6,67,5.777872562408446,5.787733078002929,6.32254695892334,106.57270812988281,83.77281188964842,88.57794189453125,20.851203136195398
eval_gen_partial_FM2_003.pt,9,Li2CaCe2Y2MgInFe3Co8ReNiAg3BAsP2N7O20F11,67,5.777872562408446,5.787733078002929,6.32254695892334,106.57270812988281,83.77281188964842,88.57794189453125,21.743400221417367
eval_gen_partial_FM2_003.pt,10,Ca2CeY3TiZnFe2Co9ReNi2Ag3B3HN7O20F11,67,5.777872562408446,5.787733078002929,6.32254695892334,106.57270812988281,83.77281188964842,88.57794189453125,20.890297521793542
eval_gen_partial_FM2_003.pt,11,Cs2K4BaNaLi2Ca3TbU5Cu4Ag3BAsRhSeS22Cl6O7,65,6.165624618530274,6.473819255828857,7.146732807159424,115.885986328125,99.69436645507812,91.2577590942383,26.02156802445523
eval_gen_partial_FM2_003.pt,12,Cs2K5Ba2NaLiCa2U3MnCrInFeCu3BP3Rh2S23Cl7O6,65,6.165624618530274,6.473819255828857,7.146732807159424,115.885986328125,99.69436645507812,91.2577590942383,22.577324404973176
eval_gen_partial_FM2_003.pt,13,Cs2K5Ba2NaLiCaThU3CrCu4AgAsPRu2CS21Cl6O11,65,6.165624618530274,6.473819255828857,7.146732807159424,115.885986328125,99.69436645507812,91.2577590942383,23.426985342097133
eval_gen_partial_FM2_003.pt,14,CsK4BaNaLiCa3U6FeCu5Ag3WCS24Cl6O7,65,6.165624618530274,6.473819255828857,7.146732807159424,115.885986328125,99.69436645507812,91.2577590942383,26.358492434266907
eval_gen_partial_FM2_003.pt,15,Cs2K4Ba2NaLiCa2ThU2NbFe2Cu3Ag4GeRuRhWCS23(ClO)6,65,6.165624618530274,6.473819255828857,7.146732807159424,115.885986328125,99.69436645507812,91.2577590942383,25.488004555164967
eval_gen_partial_FM2_003.pt,16,Cs2K4Ba3Na2LiCaHoU3Cu2Ag4GeAs2PRuPtS19Cl7O10,65,6.165624618530274,6.473819255828857,7.146732807159424,115.885986328125,99.69436645507812,91.2577590942383,25.959104051638604
eval_gen_partial_FM2_003.pt,17,Cs2K4Ba2NaLi2CaErU5Fe2Cu2Ag2P2RuCS25(ClO)6,65,6.165624618530274,6.473819255828857,7.146732807159424,115.885986328125,99.69436645507812,91.2577590942383,25.55847785073013
eval_gen_partial_FM2_003.pt,18,K5Ba2Na2Li2CaErUNb2Fe2Cu3Ag2As2HRu3S23Cl6O7,65,6.165624618530274,6.473819255828857,7.146732807159424,115.885986328125,99.69436645507812,91.2577590942383,21.0980553962265
eval_gen_partial_FM2_003.pt,19,K5BaNa2LiCa2ThU4Cu4SiAg4AsRhSeS23NCl7O6,65,6.165624618530274,6.473819255828857,7.146732807159424,115.885986328125,99.69436645507812,91.2577590942383,24.536097071443702
eval_gen_partial_FM2_003.pt,20,Cs2K5BaNaLiCa2U4GaCu7As2PRu2S24(ClO)6,65,6.165624618530274,6.473819255828857,7.146732807159424,115.885986328125,99.69436645507812,91.2577590942383,24.010289269436072
eval_gen_partial_FM2_003.pt,21,Cs2Rb2Na2Li3Ca2LaCeHoTiTl2ZnCo2Cu2SiGeHW2S2I2ClO24,56,6.196598052978516,6.360898971557617,8.49795150756836,93.65718841552736,93.44322204589844,90.8730239868164,14.939757525798868
eval_gen_partial_FM2_003.pt,22,Cs2Rb2Ba2Na2Li2LaTi2ZnGaCo2Bi2SbAsHW2(ClO7)4,56,6.196598052978516,6.360898971557617,8.49795150756836,93.65718841552736,93.44322204589844,90.8730239868164,14.09645014850297
eval_gen_partial_FM2_003.pt,23,Cs2KRb2BaNaLiCaDyYMgTi3Tl2Co2SiBiAsH2WCl3O28,56,6.196598052978516,6.360898971557617,8.49795150756836,93.65718841552736,93.44322204589844,90.8730239868164,13.346266661745812
eval_gen_partial_FM2_003.pt,24,K2Rb5Li2CaCeHoTi2NbTl2ZnGaBi2Sb2AsHSe(ClO14)2,56,6.196598052978516,6.360898971557617,8.49795150756836,93.65718841552736,93.44322204589844,90.8730239868164,14.595769590421915
eval_gen_partial_FM2_003.pt,25,CsKRb2LiCeGdYHoMgTi2Tl2ZnCoCu2GeBSbPW2S2I2NO27,56,6.196598052978516,6.360898971557617,8.49795150756836,93.65718841552736,93.44322204589844,90.8730239868164,15.177024317208456
eval_gen_partial_FM2_003.pt,26,CsKRb2LiCa3LaMgTi3AlTl2Co2SiBi2AsPWCl5O27,56,6.196598052978516,6.360898971557617,8.49795150756836,93.65718841552736,93.44322204589844,90.8730239868164,13.317694824720949
eval_gen_partial_FM2_003.pt,27,Cs2Rb2Li2La2DyMgTiTl2GaSiGe4Bi2AsW(ClO10)3,56,6.196598052978516,6.360898971557617,8.49795150756836,93.65718841552736,93.44322204589844,90.8730239868164,15.048571693174965
eval_gen_partial_FM2_003.pt,28,KRb2NaLi2CeGdYHoTi2Tl2Zn3GaCoCu2GeHW2Se2I2Cl2O25,56,6.196598052978516,6.360898971557617,8.49795150756836,93.65718841552736,93.44322204589844,90.8730239868164,15.323437908622763
eval_gen_partial_FM2_003.pt,29,CsRbLi2CaLa3CeHoTiTlZnCoSiBi2SbTeHW2(I2O15)2,56,6.196598052978516,6.360898971557617,8.49795150756836,93.65718841552736,93.44322204589844,90.8730239868164,17.03496195503896
eval_gen_partial_FM2_003.pt,30,Cs2KRb6Li2AcYMg3Ti2TlCoSiBiSbAsHWSeClO28,56,6.196598052978516,6.360898971557617,8.49795150756836,93.65718841552736,93.44322204589844,90.8730239868164,13.740236981444435
eval_gen_partial_FM3_001.pt,1,Cs2K3Na2Sr2Li6Yb2HfMgU2TiMn2Fe3Cu2SiAg(O4F3)6,73,4.872558116912842,6.161302089691162,8.697774887084961,82.62377166748047,85.96931457519531,85.10387420654297,19.247023113935427
eval_gen_partial_FM3_001.pt,2,Cs2K2Na6Sr2Li4NdEuU2Ti3MnCu2SbIr2(O6F5)4,73,4.872558116912842,6.161302089691162,8.697774887084961,82.62377166748047,85.96931457519531,85.10387420654297,19.684215153418545
eval_gen_partial_FM3_001.pt,3,Cs2K2Na2Sr2Li6CaNdEuTi2Mn3Fe3Ag2Sb3O23F20,73,4.872558116912842,6.161302089691162,8.697774887084961,82.62377166748047,85.96931457519531,85.10387420654297,17.409649246088495
eval_gen_partial_FM3_001.pt,4,K3Rb2Na3SrLi4Yb3NdHfMgTi3MnFe4CuAgSbO25F18,73,4.872558116912842,6.161302089691162,8.697774887084961,82.62377166748047,85.96931457519531,85.10387420654297,18.02589928342708
eval_gen_partial_FM3_001.pt,5,K3Rb2Na5SrLi4NdTi3Mn2FeSiAgBiSb2(O11F12)2,73,4.872558116912842,6.161302089691162,8.697774887084961,82.62377166748047,85.96931457519531,85.10387420654297,15.271132211985568
eval_gen_partial_FM3_001.pt,6,K3Rb2Na3SrLi7CaYbMgU2TiMn2Fe2CuSiAgSbO22F21,73,4.872558116912842,6.161302089691162,8.697774887084961,82.62377166748047,85.96931457519531,85.10387420654297,16.431708542448725
eval_gen_partial_FM3_001.pt,7,K3Rb2Na6SrLi7YbNdU2TiFe2Cu2Re2Ge(O4F3)6,73,4.872558116912842,6.161302089691162,8.697774887084961,82.62377166748047,85.96931457519531,85.10387420654297,18.139281943543104
eval_gen_partial_FM3_001.pt,8,Cs2K2BaNa5Sr2Li5PrMgTi2Mn2FeAg2BiBTeO19F25,73,4.872558116912842,6.161302089691162,8.697774887084961,82.62377166748047,85.96931457519531,85.10387420654297,16.602173644670664
eval_gen_partial_FM3_001.pt,9,K4Rb2Na5SrLi6NdUTaTiBeFe2AgSb2PIrO23F20,73,4.872558116912842,6.161302089691162,8.697774887084961,82.62377166748047,85.96931457519531,85.10387420654297,16.930302333581306
eval_gen_partial_FM3_001.pt,10,K4Rb2Na5SrLi6TbUTi3MnFeCu2Si2SbO21F22,73,4.872558116912842,6.161302089691162,8.697774887084961,82.62377166748047,85.96931457519531,85.10387420654297,14.712308110422674
eval_gen_partial_FM3_002.pt,1,Cs2K3Na2Sr2Li6Yb2HfMgU2TiMn2Fe3Cu2SiAg(O4F3)6,73,4.872558116912842,6.161302089691162,8.697774887084961,82.62377166748047,85.96931457519531,85.10387420654297,19.247023113935427
eval_gen_partial_FM3_002.pt,2,Cs2K2Na6Sr2Li4NdEuU2Ti3MnCu2SbIr2(O6F5)4,73,4.872558116912842,6.161302089691162,8.697774887084961,82.62377166748047,85.96931457519531,85.10387420654297,19.684215153418545
eval_gen_partial_FM3_002.pt,3,Cs2K2Na2Sr2Li6CaNdEuTi2Mn3Fe3Ag2Sb3O23F20,73,4.872558116912842,6.161302089691162,8.697774887084961,82.62377166748047,85.96931457519531,85.10387420654297,17.409649246088495
eval_gen_partial_FM3_002.pt,4,K3Rb2Na3SrLi4Yb3NdHfMgTi3MnFe4CuAgSbO25F18,73,4.872558116912842,6.161302089691162,8.697774887084961,82.62377166748047,85.96931457519531,85.10387420654297,18.02589928342708
eval_gen_partial_FM3_002.pt,5,K3Rb2Na5SrLi4NdTi3Mn2FeSiAgBiSb2(O11F12)2,73,4.872558116912842,6.161302089691162,8.697774887084961,82.62377166748047,85.96931457519531,85.10387420654297,15.271132211985568
eval_gen_partial_FM3_002.pt,6,K3Rb2Na3SrLi7CaYbMgU2TiMn2Fe2CuSiAgSbO22F21,73,4.872558116912842,6.161302089691162,8.697774887084961,82.62377166748047,85.96931457519531,85.10387420654297,16.431708542448725
eval_gen_partial_FM3_002.pt,7,K3Rb2Na6SrLi7YbNdU2TiFe2Cu2Re2Ge(O4F3)6,73,4.872558116912842,6.161302089691162,8.697774887084961,82.62377166748047,85.96931457519531,85.10387420654297,18.139281943543104
eval_gen_partial_FM3_002.pt,8,Cs2K2BaNa5Sr2Li5PrMgTi2Mn2FeAg2BiBTeO19F25,73,4.872558116912842,6.161302089691162,8.697774887084961,82.62377166748047,85.96931457519531,85.10387420654297,16.602173644670664
eval_gen_partial_FM3_002.pt,9,K4Rb2Na5SrLi6NdUTaTiBeFe2AgSb2PIrO23F20,73,4.872558116912842,6.161302089691162,8.697774887084961,82.62377166748047,85.96931457519531,85.10387420654297,16.930302333581306
eval_gen_partial_FM3_002.pt,10,K4Rb2Na5SrLi6TbUTi3MnFeCu2Si2SbO21F22,73,4.872558116912842,6.161302089691162,8.697774887084961,82.62377166748047,85.96931457519531,85.10387420654297,14.712308110422674
eval_gen_partial_FM3_002.pt,11,CsK4RbBa2Li4TmMgTi2Mn2AlCu2NiClO14F15,52,5.9893317222595215,6.345969200134278,7.8868327140808105,82.46167755126953,93.1461181640625,90.42332458496095,10.25911462166811
eval_gen_partial_FM3_002.pt,12,CsK5NaSrLi2TmTi2Mn2VCuPH3WClO15F14,52,5.9893317222595215,6.345969200134278,7.8868327140808105,82.46167755126953,93.1461181640625,90.42332458496095,9.520180493244508
eval_gen_partial_FM3_002.pt,13,K5RbLi5CaTmTi2MnAlCuP2WCl5(O8F5)2,52,5.9893317222595215,6.345969200134278,7.8868327140808105,82.46167755126953,93.1461181640625,90.42332458496095,9.149281338218037
eval_gen_partial_FM3_002.pt,14,Cs2K5RbLi5MgTi2MnCu2PH2WO13F16,52,5.9893317222595215,6.345969200134278,7.8868327140808105,82.46167755126953,93.1461181640625,90.42332458496095,9.023016524057596
eval_gen_partial_FM3_002.pt,15,CsK5NaSrLi4TmMgTi2FeCuAgH2WClO11F18,52,5.9893317222595215,6.345969200134278,7.8868327140808105,82.46167755126953,93.1461181640625,90.42332458496095,9.63824355748341
eval_gen_partial_FM3_002.pt,16,K4RbBa2NaLi4CaTmTi2Mn2Cu2BPCl4O15F11,52,5.9893317222595215,6.345969200134278,7.8868327140808105,82.46167755126953,93.1461181640625,90.42332458496095,9.746119688513993
eval_gen_partial_FM3_002.pt,17,CsK5SrLi3TmMgScTi2MnCuP2H2WClO19F10,52,5.9893317222595215,6.345969200134278,7.8868327140808105,82.46167755126953,93.1461181640625,90.42332458496095,9.32600503988928
eval_gen_partial_FM3_002.pt,18,CsK5RbLi3CaTmTi3CuAgP2H2WClO16F13,52,5.9893317222595215,6.345969200134278,7.8868327140808105,82.46167755126953,93.1461181640625,90.42332458496095,9.765079360499957
eval_gen_partial_FM3_002.pt,19,K5RbNaLi3TmMg2Ti2MnVPH3WCl5O13F12,52,5.9893317222595215,6.345969200134278,7.8868327140808105,82.46167755126953,93.1461181640625,90.42332458496095,8.814081009958457
eval_gen_partial_FM3_002.pt,20,K5NaSrLi4Tm2MgTi2VCrCuH2WCl5O17F8,52,5.9893317222595215,6.345969200134278,7.8868327140808105,82.46167755126953,93.1461181640625,90.42332458496095,9.76739052979509
eval_gen_partial_FM3_003.pt,1,Cs2K3Na2Sr2Li6Yb2HfMgU2TiMn2Fe3Cu2SiAg(O4F3)6,73,4.872558116912842,6.161302089691162,8.697774887084961,82.62377166748047,85.96931457519531,85.10387420654297,19.247023113935427
eval_gen_partial_FM3_003.pt,2,Cs2K2Na6Sr2Li4NdEuU2Ti3MnCu2SbIr2(O6F5)4,73,4.872558116912842,6.161302089691162,8.697774887084961,82.62377166748047,85.96931457519531,85.10387420654297,19.684215153418545
eval_gen_partial_FM3_003.pt,3,Cs2K2Na2Sr2Li6CaNdEuTi2Mn3Fe3Ag2Sb3O23F20,73,4.872558116912842,6.161302089691162,8.697774887084961,82.62377166748047,85.96931457519531,85.10387420654297,17.409649246088495
eval_gen_partial_FM3_003.pt,4,K3Rb2Na3SrLi4Yb3NdHfMgTi3MnFe4CuAgSbO25F18,73,4.872558116912842,6.161302089691162,8.697774887084961,82.62377166748047,85.96931457519531,85.10387420654297,18.02589928342708
eval_gen_partial_FM3_003.pt,5,K3Rb2Na5SrLi4NdTi3Mn2FeSiAgBiSb2(O11F12)2,73,4.872558116912842,6.161302089691162,8.697774887084961,82.62377166748047,85.96931457519531,85.10387420654297,15.271132211985568
eval_gen_partial_FM3_003.pt,6,K3Rb2Na3SrLi7CaYbMgU2TiMn2Fe2CuSiAgSbO22F21,73,4.872558116912842,6.161302089691162,8.697774887084961,82.62377166748047,85.96931457519531,85.10387420654297,16.431708542448725
eval_gen_partial_FM3_003.pt,7,K3Rb2Na6SrLi7YbNdU2TiFe2Cu2Re2Ge(O4F3)6,73,4.872558116912842,6.161302089691162,8.697774887084961,82.62377166748047,85.96931457519531,85.10387420654297,18.139281943543104
eval_gen_partial_FM3_003.pt,8,Cs2K2BaNa5Sr2Li5PrMgTi2Mn2FeAg2BiBTeO19F25,73,4.872558116912842,6.161302089691162,8.697774887084961,82.62377166748047,85.96931457519531,85.10387420654297,16.602173644670664
eval_gen_partial_FM3_003.pt,9,K4Rb2Na5SrLi6NdUTaTiBeFe2AgSb2PIrO23F20,73,4.872558116912842,6.161302089691162,8.697774887084961,82.62377166748047,85.96931457519531,85.10387420654297,16.930302333581306
eval_gen_partial_FM3_003.pt,10,K4Rb2Na5SrLi6TbUTi3MnFeCu2Si2SbO21F22,73,4.872558116912842,6.161302089691162,8.697774887084961,82.62377166748047,85.96931457519531,85.10387420654297,14.712308110422674
eval_gen_partial_FM3_003.pt,11,CsK4RbBa2Li4TmMgTi2Mn2AlCu2NiClO14F15,52,5.9893317222595215,6.345969200134278,7.8868327140808105,82.46167755126953,93.1461181640625,90.42332458496095,10.25911462166811
eval_gen_partial_FM3_003.pt,12,CsK5NaSrLi2TmTi2Mn2VCuPH3WClO15F14,52,5.9893317222595215,6.345969200134278,7.8868327140808105,82.46167755126953,93.1461181640625,90.42332458496095,9.520180493244508
eval_gen_partial_FM3_003.pt,13,K5RbLi5CaTmTi2MnAlCuP2WCl5(O8F5)2,52,5.9893317222595215,6.345969200134278,7.8868327140808105,82.46167755126953,93.1461181640625,90.42332458496095,9.149281338218037
eval_gen_partial_FM3_003.pt,14,Cs2K5RbLi5MgTi2MnCu2PH2WO13F16,52,5.9893317222595215,6.345969200134278,7.8868327140808105,82.46167755126953,93.1461181640625,90.42332458496095,9.023016524057596
eval_gen_partial_FM3_003.pt,15,CsK5NaSrLi4TmMgTi2FeCuAgH2WClO11F18,52,5.9893317222595215,6.345969200134278,7.8868327140808105,82.46167755126953,93.1461181640625,90.42332458496095,9.63824355748341
eval_gen_partial_FM3_003.pt,16,K4RbBa2NaLi4CaTmTi2Mn2Cu2BPCl4O15F11,52,5.9893317222595215,6.345969200134278,7.8868327140808105,82.46167755126953,93.1461181640625,90.42332458496095,9.746119688513993
eval_gen_partial_FM3_003.pt,17,CsK5SrLi3TmMgScTi2MnCuP2H2WClO19F10,52,5.9893317222595215,6.345969200134278,7.8868327140808105,82.46167755126953,93.1461181640625,90.42332458496095,9.32600503988928
eval_gen_partial_FM3_003.pt,18,CsK5RbLi3CaTmTi3CuAgP2H2WClO16F13,52,5.9893317222595215,6.345969200134278,7.8868327140808105,82.46167755126953,93.1461181640625,90.42332458496095,9.765079360499957
eval_gen_partial_FM3_003.pt,19,K5RbNaLi3TmMg2Ti2MnVPH3WCl5O13F12,52,5.9893317222595215,6.345969200134278,7.8868327140808105,82.46167755126953,93.1461181640625,90.42332458496095,8.814081009958457
eval_gen_partial_FM3_003.pt,20,K5NaSrLi4Tm2MgTi2VCrCuH2WCl5O17F8,52,5.9893317222595215,6.345969200134278,7.8868327140808105,82.46167755126953,93.1461181640625,90.42332458496095,9.76739052979509
eval_gen_partial_FM3_003.pt,21,CsK9NaSrLa2Gd2NbVSi6BiP2WO38F5,71,4.155109882354736,7.1318674087524405,9.119126319885254,106.3987808227539,105.92355346679686,89.44393920898438,17.751595134434684
eval_gen_partial_FM3_003.pt,22,K10Na2Sr2LaNb3CrSi2P2HW3(O19F3)2,71,4.155109882354736,7.1318674087524405,9.119126319885254,106.3987808227539,105.92355346679686,89.44393920898438,16.526850372865283
eval_gen_partial_FM3_003.pt,23,CsK9Na2Sr2CaLaSmNbVSi6BiW3(O20F)2,71,4.155109882354736,7.1318674087524405,9.119126319885254,106.3987808227539,105.92355346679686,89.44393920898438,18.60903856752306
eval_gen_partial_FM3_003.pt,24,K9Sr2CaLaGdNb2Cr2Si4BiHW2SO37F7,71,4.155109882354736,7.1318674087524405,9.119126319885254,106.3987808227539,105.92355346679686,89.44393920898438,17.366857486866113
eval_gen_partial_FM3_003.pt,25,CsK8NaSr2CaGdNb2VCu2Si5BiW3SClO39F2,71,4.155109882354736,7.1318674087524405,9.119126319885254,106.3987808227539,105.92355346679686,89.44393920898438,18.938501546850627
eval_gen_partial_FM3_003.pt,26,CsK9Na2Sr2LiLaTh2TaMnNb2ZnSi2NiW2SO41F,71,4.155109882354736,7.1318674087524405,9.119126319885254,106.3987808227539,105.92355346679686,89.44393920898438,19.98783104991196
eval_gen_partial_FM3_003.pt,27,K9Na4SrCaLa2Nb2Si5BiW3O39F4,71,4.155109882354736,7.1318674087524405,9.119126319885254,106.3987808227539,105.92355346679686,89.44393920898438,17.60635760089296