source_pt,idx,formula,n_atom,a,b,c,alpha,beta,gamma,density
eval_gen_partial_FM1_004.pt,3,YbPmTa2GePt(SeBr)2,10,4.135356426239014,5.485744476318359,7.539834976196289,90.92151641845705,89.8045425415039,88.97415924072266,12.288280740305696
eval_gen_partial_FM1_004.pt,4,Cs2Nb2Cr6SiAsS18,30,6.8223538398742685,7.775385856628419,9.117608070373535,89.96515655517578,87.12135314941408,87.9039306640625,4.966513151493581
eval_gen_partial_FM1_005.pt,1,Y2CdIn2AsSe(ICl)2,11,3.4983239173889156,3.424223899841308,7.899467945098877,84.02668762207033,90.93142700195314,100.42456817626953,17.912323362005644
eval_gen_partial_FM1_005.pt,2,Ca2ScBi2AuSe2,8,4.1957197189331055,5.1814093589782715,5.545741081237793,96.11729431152344,77.90558624267578,79.79859924316406,12.997364397074707
eval_gen_partial_FM1_005.pt,3,YbPmTa2GePt(SeBr)2,10,4.135356426239014,5.485744476318359,7.539834976196289,90.92151641845705,89.8045425415039,88.97415924072266,12.288280740305696
eval_gen_partial_FM1_005.pt,4,Cs2Nb2Cr6SiAsS18,30,6.8223538398742685,7.775385856628419,9.117608070373535,89.96515655517578,87.12135314941408,87.9039306640625,4.966513151493581
eval_gen_partial_FM1_005.pt,5,YbCeEu2P4Pt3Au2,13,5.652045249938966,5.717082977294923,5.523828506469727,115.73481750488283,93.89945220947266,92.4295654296875,17.863457325674982
eval_gen_partial_FM1_006.pt,1,Y2CdIn2AsSe(ICl)2,11,3.4983239173889156,3.424223899841308,7.899467945098877,84.02668762207033,90.93142700195314,100.42456817626953,17.912323362005644
eval_gen_partial_FM1_006.pt,2,Ca2ScBi2AuSe2,8,4.1957197189331055,5.1814093589782715,5.545741081237793,96.11729431152344,77.90558624267578,79.79859924316406,12.997364397074707
eval_gen_partial_FM1_006.pt,3,YbPmTa2GePt(SeBr)2,10,4.135356426239014,5.485744476318359,7.539834976196289,90.92151641845705,89.8045425415039,88.97415924072266,12.288280740305696
eval_gen_partial_FM1_006.pt,4,Cs2Nb2Cr6SiAsS18,30,6.8223538398742685,7.775385856628419,9.117608070373535,89.96515655517578,87.12135314941408,87.9039306640625,4.966513151493581
eval_gen_partial_FM1_006.pt,5,YbCeEu2P4Pt3Au2,13,5.652045249938966,5.717082977294923,5.523828506469727,115.73481750488283,93.89945220947266,92.4295654296875,17.863457325674982
eval_gen_partial_FM1_006.pt,6,Na2SiNiHg2(WS5)2,18,3.816621065139771,5.532199382781982,11.891140937805176,98.21861267089844,98.1083221435547,105.68147277832031,8.638407602810561
eval_gen_partial_FM1_007.pt,1,Y2CdIn2AsSe(ICl)2,11,3.4983239173889156,3.424223899841308,7.899467945098877,84.02668762207033,90.93142700195314,100.42456817626953,17.912323362005644
eval_gen_partial_FM1_007.pt,2,Ca2ScBi2AuSe2,8,4.1957197189331055,5.1814093589782715,5.545741081237793,96.11729431152344,77.90558624267578,79.79859924316406,12.997364397074707
eval_gen_partial_FM1_007.pt,3,YbPmTa2GePt(SeBr)2,10,4.135356426239014,5.485744476318359,7.539834976196289,90.92151641845705,89.8045425415039,88.97415924072266,12.288280740305696
eval_gen_partial_FM1_007.pt,4,Cs2Nb2Cr6SiAsS18,30,6.8223538398742685,7.775385856628419,9.117608070373535,89.96515655517578,87.12135314941408,87.9039306640625,4.966513151493581
eval_gen_partial_FM1_007.pt,5,YbCeEu2P4Pt3Au2,13,5.652045249938966,5.717082977294923,5.523828506469727,115.73481750488283,93.89945220947266,92.4295654296875,17.863457325674982
eval_gen_partial_FM1_007.pt,6,Na2SiNiHg2(WS5)2,18,3.816621065139771,5.532199382781982,11.891140937805176,98.21861267089844,98.1083221435547,105.68147277832031,8.638407602810561
eval_gen_partial_FM1_007.pt,7,KRb2Cu2Pd2Se2(SI)2,13,3.699487924575805,4.42379093170166,7.163325309753418,102.9268798828125,101.68113708496094,105.21887969970703,16.08250022072401
eval_gen_partial_FM1_008.pt,1,Y2CdIn2AsSe(ICl)2,11,3.4983239173889156,3.424223899841308,7.899467945098877,84.02668762207033,90.93142700195314,100.42456817626953,17.912323362005644
eval_gen_partial_FM1_008.pt,2,Ca2ScBi2AuSe2,8,4.1957197189331055,5.1814093589782715,5.545741081237793,96.11729431152344,77.90558624267578,79.79859924316406,12.997364397074707
eval_gen_partial_FM1_008.pt,3,YbPmTa2GePt(SeBr)2,10,4.135356426239014,5.485744476318359,7.539834976196289,90.92151641845705,89.8045425415039,88.97415924072266,12.288280740305696
eval_gen_partial_FM1_008.pt,4,Cs2Nb2Cr6SiAsS18,30,6.8223538398742685,7.775385856628419,9.117608070373535,89.96515655517578,87.12135314941408,87.9039306640625,4.966513151493581
eval_gen_partial_FM1_008.pt,5,YbCeEu2P4Pt3Au2,13,5.652045249938966,5.717082977294923,5.523828506469727,115.73481750488283,93.89945220947266,92.4295654296875,17.863457325674982
eval_gen_partial_FM1_008.pt,6,Na2SiNiHg2(WS5)2,18,3.816621065139771,5.532199382781982,11.891140937805176,98.21861267089844,98.1083221435547,105.68147277832031,8.638407602810561
eval_gen_partial_FM1_008.pt,7,KRb2Cu2Pd2Se2(SI)2,13,3.699487924575805,4.42379093170166,7.163325309753418,102.9268798828125,101.68113708496094,105.21887969970703,16.08250022072401
eval_gen_partial_FM1_008.pt,8,Rb3LaCe2ZnCu3PC2Se5N8,26,5.006387233734131,6.3323349952697745,7.996946334838867,107.138916015625,101.45845794677734,104.95642089843751,11.098127767975202
eval_gen_partial_FM1_009.pt,1,Y2CdIn2AsSe(ICl)2,11,3.4983239173889156,3.424223899841308,7.899467945098877,84.02668762207033,90.93142700195314,100.42456817626953,17.912323362005644
eval_gen_partial_FM1_009.pt,2,Ca2ScBi2AuSe2,8,4.1957197189331055,5.1814093589782715,5.545741081237793,96.11729431152344,77.90558624267578,79.79859924316406,12.997364397074707
eval_gen_partial_FM1_009.pt,3,YbPmTa2GePt(SeBr)2,10,4.135356426239014,5.485744476318359,7.539834976196289,90.92151641845705,89.8045425415039,88.97415924072266,12.288280740305696
eval_gen_partial_FM1_009.pt,4,Cs2Nb2Cr6SiAsS18,30,6.8223538398742685,7.775385856628419,9.117608070373535,89.96515655517578,87.12135314941408,87.9039306640625,4.966513151493581
eval_gen_partial_FM1_009.pt,5,YbCeEu2P4Pt3Au2,13,5.652045249938966,5.717082977294923,5.523828506469727,115.73481750488283,93.89945220947266,92.4295654296875,17.863457325674982
eval_gen_partial_FM1_009.pt,6,Na2SiNiHg2(WS5)2,18,3.816621065139771,5.532199382781982,11.891140937805176,98.21861267089844,98.1083221435547,105.68147277832031,8.638407602810561
eval_gen_partial_FM1_009.pt,7,KRb2Cu2Pd2Se2(SI)2,13,3.699487924575805,4.42379093170166,7.163325309753418,102.9268798828125,101.68113708496094,105.21887969970703,16.08250022072401
eval_gen_partial_FM1_009.pt,8,Rb3LaCe2ZnCu3PC2Se5N8,26,5.006387233734131,6.3323349952697745,7.996946334838867,107.138916015625,101.45845794677734,104.95642089843751,11.098127767975202
eval_gen_partial_FM1_009.pt,9,RbBa2Ca2In2CuSn2Ge2Pt3I7N,23,7.242183685302734,7.418651103973389,8.181992530822754,84.23004150390625,87.34596252441408,88.8055648803711,9.897475478546674
eval_gen_partial_FM1_010.pt,1,Y2CdIn2AsSe(ICl)2,11,3.4983239173889156,3.424223899841308,7.899467945098877,84.02668762207033,90.93142700195314,100.42456817626953,17.912323362005644
eval_gen_partial_FM1_010.pt,2,Ca2ScBi2AuSe2,8,4.1957197189331055,5.1814093589782715,5.545741081237793,96.11729431152344,77.90558624267578,79.79859924316406,12.997364397074707
eval_gen_partial_FM1_010.pt,3,YbPmTa2GePt(SeBr)2,10,4.135356426239014,5.485744476318359,7.539834976196289,90.92151641845705,89.8045425415039,88.97415924072266,12.288280740305696
eval_gen_partial_FM1_010.pt,4,Cs2Nb2Cr6SiAsS18,30,6.8223538398742685,7.775385856628419,9.117608070373535,89.96515655517578,87.12135314941408,87.9039306640625,4.966513151493581
eval_gen_partial_FM1_010.pt,5,YbCeEu2P4Pt3Au2,13,5.652045249938966,5.717082977294923,5.523828506469727,115.73481750488283,93.89945220947266,92.4295654296875,17.863457325674982
eval_gen_partial_FM1_010.pt,6,Na2SiNiHg2(WS5)2,18,3.816621065139771,5.532199382781982,11.891140937805176,98.21861267089844,98.1083221435547,105.68147277832031,8.638407602810561
eval_gen_partial_FM1_010.pt,7,KRb2Cu2Pd2Se2(SI)2,13,3.699487924575805,4.42379093170166,7.163325309753418,102.9268798828125,101.68113708496094,105.21887969970703,16.08250022072401
eval_gen_partial_FM1_010.pt,8,Rb3LaCe2ZnCu3PC2Se5N8,26,5.006387233734131,6.3323349952697745,7.996946334838867,107.138916015625,101.45845794677734,104.95642089843751,11.098127767975202
eval_gen_partial_FM1_010.pt,9,RbBa2Ca2In2CuSn2Ge2Pt3I7N,23,7.242183685302734,7.418651103973389,8.181992530822754,84.23004150390625,87.34596252441408,88.8055648803711,9.897475478546674
eval_gen_partial_FM1_010.pt,10,YbSmDyInGaCuGe4(PtS)5,20,3.535396814346314,5.597785472869874,8.722960472106934,99.58368682861328,95.62093353271486,91.33528137207033,21.193101476626772
eval_gen_partial_FM1_011.pt,1,Y2CdIn2AsSe(ICl)2,11,3.4983239173889156,3.424223899841308,7.899467945098877,84.02668762207033,90.93142700195314,100.42456817626953,17.912323362005644
eval_gen_partial_FM1_011.pt,2,Ca2ScBi2AuSe2,8,4.1957197189331055,5.1814093589782715,5.545741081237793,96.11729431152344,77.90558624267578,79.79859924316406,12.997364397074707
eval_gen_partial_FM1_011.pt,3,YbPmTa2GePt(SeBr)2,10,4.135356426239014,5.485744476318359,7.539834976196289,90.92151641845705,89.8045425415039,88.97415924072266,12.288280740305696
eval_gen_partial_FM1_011.pt,4,Cs2Nb2Cr6SiAsS18,30,6.8223538398742685,7.775385856628419,9.117608070373535,89.96515655517578,87.12135314941408,87.9039306640625,4.966513151493581
eval_gen_partial_FM1_011.pt,5,YbCeEu2P4Pt3Au2,13,5.652045249938966,5.717082977294923,5.523828506469727,115.73481750488283,93.89945220947266,92.4295654296875,17.863457325674982
eval_gen_partial_FM1_011.pt,6,Na2SiNiHg2(WS5)2,18,3.816621065139771,5.532199382781982,11.891140937805176,98.21861267089844,98.1083221435547,105.68147277832031,8.638407602810561
eval_gen_partial_FM1_011.pt,7,KRb2Cu2Pd2Se2(SI)2,13,3.699487924575805,4.42379093170166,7.163325309753418,102.9268798828125,101.68113708496094,105.21887969970703,16.08250022072401
eval_gen_partial_FM1_011.pt,8,Rb3LaCe2ZnCu3PC2Se5N8,26,5.006387233734131,6.3323349952697745,7.996946334838867,107.138916015625,101.45845794677734,104.95642089843751,11.098127767975202
eval_gen_partial_FM1_011.pt,9,RbBa2Ca2In2CuSn2Ge2Pt3I7N,23,7.242183685302734,7.418651103973389,8.181992530822754,84.23004150390625,87.34596252441408,88.8055648803711,9.897475478546674
eval_gen_partial_FM1_011.pt,10,YbSmDyInGaCuGe4(PtS)5,20,3.535396814346314,5.597785472869874,8.722960472106934,99.58368682861328,95.62093353271486,91.33528137207033,21.193101476626772
eval_gen_partial_FM1_011.pt,11,KSmDy2VSi3Ni4BPHS4I,20,4.7045464515686035,4.971769809722901,9.503711700439453,109.89428710937501,106.88323211669922,88.94688415527344,9.855687659372267
eval_gen_partial_FM1_012.pt,1,Y2CdIn2AsSe(ICl)2,11,3.4983239173889156,3.424223899841308,7.899467945098877,84.02668762207033,90.93142700195314,100.42456817626953,17.912323362005644
eval_gen_partial_FM1_012.pt,2,Ca2ScBi2AuSe2,8,4.1957197189331055,5.1814093589782715,5.545741081237793,96.11729431152344,77.90558624267578,79.79859924316406,12.997364397074707
eval_gen_partial_FM1_012.pt,3,YbPmTa2GePt(SeBr)2,10,4.135356426239014,5.485744476318359,7.539834976196289,90.92151641845705,89.8045425415039,88.97415924072266,12.288280740305696
eval_gen_partial_FM1_012.pt,4,Cs2Nb2Cr6SiAsS18,30,6.8223538398742685,7.775385856628419,9.117608070373535,89.96515655517578,87.12135314941408,87.9039306640625,4.966513151493581
eval_gen_partial_FM1_012.pt,5,YbCeEu2P4Pt3Au2,13,5.652045249938966,5.717082977294923,5.523828506469727,115.73481750488283,93.89945220947266,92.4295654296875,17.863457325674982
eval_gen_partial_FM1_012.pt,6,Na2SiNiHg2(WS5)2,18,3.816621065139771,5.532199382781982,11.891140937805176,98.21861267089844,98.1083221435547,105.68147277832031,8.638407602810561
eval_gen_partial_FM1_012.pt,7,KRb2Cu2Pd2Se2(SI)2,13,3.699487924575805,4.42379093170166,7.163325309753418,102.9268798828125,101.68113708496094,105.21887969970703,16.08250022072401
eval_gen_partial_FM1_012.pt,8,Rb3LaCe2ZnCu3PC2Se5N8,26,5.006387233734131,6.3323349952697745,7.996946334838867,107.138916015625,101.45845794677734,104.95642089843751,11.098127767975202
eval_gen_partial_FM1_012.pt,9,RbBa2Ca2In2CuSn2Ge2Pt3I7N,23,7.242183685302734,7.418651103973389,8.181992530822754,84.23004150390625,87.34596252441408,88.8055648803711,9.897475478546674
eval_gen_partial_FM1_012.pt,10,YbSmDyInGaCuGe4(PtS)5,20,3.535396814346314,5.597785472869874,8.722960472106934,99.58368682861328,95.62093353271486,91.33528137207033,21.193101476626772
eval_gen_partial_FM1_012.pt,11,KSmDy2VSi3Ni4BPHS4I,20,4.7045464515686035,4.971769809722901,9.503711700439453,109.89428710937501,106.88323211669922,88.94688415527344,9.855687659372267
eval_gen_partial_FM1_012.pt,12,GdLuSb2(PdSe2)2,10,3.8255884647369385,4.201512336730957,7.624085903167725,93.398681640625,89.2256546020508,89.36917877197267,14.99426180520253
eval_gen_partial_FM1_013.pt,1,Y2CdIn2AsSe(ICl)2,11,3.4983239173889156,3.424223899841308,7.899467945098877,84.02668762207033,90.93142700195314,100.42456817626953,17.912323362005644
eval_gen_partial_FM1_013.pt,2,Ca2ScBi2AuSe2,8,4.1957197189331055,5.1814093589782715,5.545741081237793,96.11729431152344,77.90558624267578,79.79859924316406,12.997364397074707
eval_gen_partial_FM1_013.pt,3,YbPmTa2GePt(SeBr)2,10,4.135356426239014,5.485744476318359,7.539834976196289,90.92151641845705,89.8045425415039,88.97415924072266,12.288280740305696
eval_gen_partial_FM1_013.pt,4,Cs2Nb2Cr6SiAsS18,30,6.8223538398742685,7.775385856628419,9.117608070373535,89.96515655517578,87.12135314941408,87.9039306640625,4.966513151493581
eval_gen_partial_FM1_013.pt,5,YbCeEu2P4Pt3Au2,13,5.652045249938966,5.717082977294923,5.523828506469727,115.73481750488283,93.89945220947266,92.4295654296875,17.863457325674982
eval_gen_partial_FM1_013.pt,6,Na2SiNiHg2(WS5)2,18,3.816621065139771,5.532199382781982,11.891140937805176,98.21861267089844,98.1083221435547,105.68147277832031,8.638407602810561
eval_gen_partial_FM1_013.pt,7,KRb2Cu2Pd2Se2(SI)2,13,3.699487924575805,4.42379093170166,7.163325309753418,102.9268798828125,101.68113708496094,105.21887969970703,16.08250022072401
eval_gen_partial_FM1_013.pt,8,Rb3LaCe2ZnCu3PC2Se5N8,26,5.006387233734131,6.3323349952697745,7.996946334838867,107.138916015625,101.45845794677734,104.95642089843751,11.098127767975202
eval_gen_partial_FM1_013.pt,9,RbBa2Ca2In2CuSn2Ge2Pt3I7N,23,7.242183685302734,7.418651103973389,8.181992530822754,84.23004150390625,87.34596252441408,88.8055648803711,9.897475478546674
eval_gen_partial_FM1_013.pt,10,YbSmDyInGaCuGe4(PtS)5,20,3.535396814346314,5.597785472869874,8.722960472106934,99.58368682861328,95.62093353271486,91.33528137207033,21.193101476626772
eval_gen_partial_FM1_013.pt,11,KSmDy2VSi3Ni4BPHS4I,20,4.7045464515686035,4.971769809722901,9.503711700439453,109.89428710937501,106.88323211669922,88.94688415527344,9.855687659372267
eval_gen_partial_FM1_013.pt,12,GdLuSb2(PdSe2)2,10,3.8255884647369385,4.201512336730957,7.624085903167725,93.398681640625,89.2256546020508,89.36917877197267,14.99426180520253
eval_gen_partial_FM1_013.pt,13,Ca4La4TlP(RhS5)2,22,4.567418098449707,7.0895819664001465,8.427396774291992,90.92840576171875,88.79261779785156,90.20105743408203,8.995419670594403
eval_gen_partial_FM1_014.pt,1,Y2CdIn2AsSe(ICl)2,11,3.4983239173889156,3.424223899841308,7.899467945098877,84.02668762207033,90.93142700195314,100.42456817626953,17.912323362005644
eval_gen_partial_FM1_014.pt,2,Ca2ScBi2AuSe2,8,4.1957197189331055,5.1814093589782715,5.545741081237793,96.11729431152344,77.90558624267578,79.79859924316406,12.997364397074707
eval_gen_partial_FM1_014.pt,3,YbPmTa2GePt(SeBr)2,10,4.135356426239014,5.485744476318359,7.539834976196289,90.92151641845705,89.8045425415039,88.97415924072266,12.288280740305696
eval_gen_partial_FM1_014.pt,4,Cs2Nb2Cr6SiAsS18,30,6.8223538398742685,7.775385856628419,9.117608070373535,89.96515655517578,87.12135314941408,87.9039306640625,4.966513151493581
eval_gen_partial_FM1_014.pt,5,YbCeEu2P4Pt3Au2,13,5.652045249938966,5.717082977294923,5.523828506469727,115.73481750488283,93.89945220947266,92.4295654296875,17.863457325674982
eval_gen_partial_FM1_014.pt,6,Na2SiNiHg2(WS5)2,18,3.816621065139771,5.532199382781982,11.891140937805176,98.21861267089844,98.1083221435547,105.68147277832031,8.638407602810561
eval_gen_partial_FM1_014.pt,7,KRb2Cu2Pd2Se2(SI)2,13,3.699487924575805,4.42379093170166,7.163325309753418,102.9268798828125,101.68113708496094,105.21887969970703,16.08250022072401
eval_gen_partial_FM1_014.pt,8,Rb3LaCe2ZnCu3PC2Se5N8,26,5.006387233734131,6.3323349952697745,7.996946334838867,107.138916015625,101.45845794677734,104.95642089843751,11.098127767975202
eval_gen_partial_FM1_014.pt,9,RbBa2Ca2In2CuSn2Ge2Pt3I7N,23,7.242183685302734,7.418651103973389,8.181992530822754,84.23004150390625,87.34596252441408,88.8055648803711,9.897475478546674
eval_gen_partial_FM1_014.pt,10,YbSmDyInGaCuGe4(PtS)5,20,3.535396814346314,5.597785472869874,8.722960472106934,99.58368682861328,95.62093353271486,91.33528137207033,21.193101476626772
eval_gen_partial_FM1_014.pt,11,KSmDy2VSi3Ni4BPHS4I,20,4.7045464515686035,4.971769809722901,9.503711700439453,109.89428710937501,106.88323211669922,88.94688415527344,9.855687659372267
eval_gen_partial_FM1_014.pt,12,GdLuSb2(PdSe2)2,10,3.8255884647369385,4.201512336730957,7.624085903167725,93.398681640625,89.2256546020508,89.36917877197267,14.99426180520253
eval_gen_partial_FM1_014.pt,13,Ca4La4TlP(RhS5)2,22,4.567418098449707,7.0895819664001465,8.427396774291992,90.92840576171875,88.79261779785156,90.20105743408203,8.995419670594403
eval_gen_partial_FM1_014.pt,14,LaDyY2Cu4Ni2P4S4O,19,3.94304871559143,6.086140155792237,7.392387390136719,95.06272888183592,92.99745178222655,91.01579284667969,10.53173246014373
eval_gen_partial_FM1_015.pt,1,Y2CdIn2AsSe(ICl)2,11,3.4983239173889156,3.424223899841308,7.899467945098877,84.02668762207033,90.93142700195314,100.42456817626953,17.912323362005644
eval_gen_partial_FM1_015.pt,2,Ca2ScBi2AuSe2,8,4.1957197189331055,5.1814093589782715,5.545741081237793,96.11729431152344,77.90558624267578,79.79859924316406,12.997364397074707
eval_gen_partial_FM1_015.pt,3,YbPmTa2GePt(SeBr)2,10,4.135356426239014,5.485744476318359,7.539834976196289,90.92151641845705,89.8045425415039,88.97415924072266,12.288280740305696
eval_gen_partial_FM1_015.pt,4,Cs2Nb2Cr6SiAsS18,30,6.8223538398742685,7.775385856628419,9.117608070373535,89.96515655517578,87.12135314941408,87.9039306640625,4.966513151493581
eval_gen_partial_FM1_015.pt,5,YbCeEu2P4Pt3Au2,13,5.652045249938966,5.717082977294923,5.523828506469727,115.73481750488283,93.89945220947266,92.4295654296875,17.863457325674982
eval_gen_partial_FM1_015.pt,6,Na2SiNiHg2(WS5)2,18,3.816621065139771,5.532199382781982,11.891140937805176,98.21861267089844,98.1083221435547,105.68147277832031,8.638407602810561
eval_gen_partial_FM1_015.pt,7,KRb2Cu2Pd2Se2(SI)2,13,3.699487924575805,4.42379093170166,7.163325309753418,102.9268798828125,101.68113708496094,105.21887969970703,16.08250022072401
eval_gen_partial_FM1_015.pt,8,Rb3LaCe2ZnCu3PC2Se5N8,26,5.006387233734131,6.3323349952697745,7.996946334838867,107.138916015625,101.45845794677734,104.95642089843751,11.098127767975202
eval_gen_partial_FM1_015.pt,9,RbBa2Ca2In2CuSn2Ge2Pt3I7N,23,7.242183685302734,7.418651103973389,8.181992530822754,84.23004150390625,87.34596252441408,88.8055648803711,9.897475478546674
eval_gen_partial_FM1_015.pt,10,YbSmDyInGaCuGe4(PtS)5,20,3.535396814346314,5.597785472869874,8.722960472106934,99.58368682861328,95.62093353271486,91.33528137207033,21.193101476626772
eval_gen_partial_FM1_015.pt,11,KSmDy2VSi3Ni4BPHS4I,20,4.7045464515686035,4.971769809722901,9.503711700439453,109.89428710937501,106.88323211669922,88.94688415527344,9.855687659372267
eval_gen_partial_FM1_015.pt,12,GdLuSb2(PdSe2)2,10,3.8255884647369385,4.201512336730957,7.624085903167725,93.398681640625,89.2256546020508,89.36917877197267,14.99426180520253
eval_gen_partial_FM1_015.pt,13,Ca4La4TlP(RhS5)2,22,4.567418098449707,7.0895819664001465,8.427396774291992,90.92840576171875,88.79261779785156,90.20105743408203,8.995419670594403
eval_gen_partial_FM1_015.pt,14,LaDyY2Cu4Ni2P4S4O,19,3.94304871559143,6.086140155792237,7.392387390136719,95.06272888183592,92.99745178222655,91.01579284667969,10.53173246014373