source_pt,idx,formula,n_atom,a,b,c,alpha,beta,gamma,density
eval_gen_partial_FM1_062.pt,1,Y2CdIn2AsSe(ICl)2,11,3.4983239173889156,3.424223899841308,7.899467945098877,84.02668762207033,90.93142700195314,100.42456817626953,17.912323362005644
eval_gen_partial_FM1_062.pt,2,Ca2ScBi2AuSe2,8,4.1957197189331055,5.1814093589782715,5.545741081237793,96.11729431152344,77.90558624267578,79.79859924316406,12.997364397074707
eval_gen_partial_FM1_062.pt,3,YbPmTa2GePt(SeBr)2,10,4.135356426239014,5.485744476318359,7.539834976196289,90.92151641845705,89.8045425415039,88.97415924072266,12.288280740305696
eval_gen_partial_FM1_062.pt,4,Cs2Nb2Cr6SiAsS18,30,6.8223538398742685,7.775385856628419,9.117608070373535,89.96515655517578,87.12135314941408,87.9039306640625,4.966513151493581
eval_gen_partial_FM1_062.pt,5,YbCeEu2P4Pt3Au2,13,5.652045249938966,5.717082977294923,5.523828506469727,115.73481750488283,93.89945220947266,92.4295654296875,17.863457325674982
eval_gen_partial_FM1_062.pt,6,Na2SiNiHg2(WS5)2,18,3.816621065139771,5.532199382781982,11.891140937805176,98.21861267089844,98.1083221435547,105.68147277832031,8.638407602810561
eval_gen_partial_FM1_062.pt,7,KRb2Cu2Pd2Se2(SI)2,13,3.699487924575805,4.42379093170166,7.163325309753418,102.9268798828125,101.68113708496094,105.21887969970703,16.08250022072401
eval_gen_partial_FM1_062.pt,8,Rb3LaCe2ZnCu3PC2Se5N8,26,5.006387233734131,6.3323349952697745,7.996946334838867,107.138916015625,101.45845794677734,104.95642089843751,11.098127767975202
eval_gen_partial_FM1_062.pt,9,RbBa2Ca2In2CuSn2Ge2Pt3I7N,23,7.242183685302734,7.418651103973389,8.181992530822754,84.23004150390625,87.34596252441408,88.8055648803711,9.897475478546674
eval_gen_partial_FM1_062.pt,10,YbSmDyInGaCuGe4(PtS)5,20,3.535396814346314,5.597785472869874,8.722960472106934,99.58368682861328,95.62093353271486,91.33528137207033,21.193101476626772
eval_gen_partial_FM1_062.pt,11,KSmDy2VSi3Ni4BPHS4I,20,4.7045464515686035,4.971769809722901,9.503711700439453,109.89428710937501,106.88323211669922,88.94688415527344,9.855687659372267
eval_gen_partial_FM1_062.pt,12,GdLuSb2(PdSe2)2,10,3.8255884647369385,4.201512336730957,7.624085903167725,93.398681640625,89.2256546020508,89.36917877197267,14.99426180520253
eval_gen_partial_FM1_062.pt,13,Ca4La4TlP(RhS5)2,22,4.567418098449707,7.0895819664001465,8.427396774291992,90.92840576171875,88.79261779785156,90.20105743408203,8.995419670594403
eval_gen_partial_FM1_062.pt,14,LaDyY2Cu4Ni2P4S4O,19,3.94304871559143,6.086140155792237,7.392387390136719,95.06272888183592,92.99745178222655,91.01579284667969,10.53173246014373
eval_gen_partial_FM1_062.pt,15,KSm2TlGePdSe2,8,4.701053142547607,4.869783401489258,5.07646369934082,92.13771057128906,78.68925476074219,79.86360168457031,13.07988275622404
eval_gen_partial_FM1_062.pt,16,Er3U2AsPd2Pt3Se4,15,3.7944202423095703,4.434477806091309,8.697848320007324,95.33432006835938,93.19828033447266,95.51022338867188,24.858230145947484
eval_gen_partial_FM1_062.pt,17,CsZr2U3GeRu(CS2)2,14,3.2918202877044678,5.308831214904785,11.343999862670898,96.74720764160156,89.30628204345703,109.76174926757814,12.153310242411742
eval_gen_partial_FM1_062.pt,18,EuNbGe2Sb4CS2N,12,3.782339096069336,6.3449320793151855,7.090961933135986,90.69029998779295,91.13304901123048,89.69721984863281,9.441839901163771
eval_gen_partial_FM1_062.pt,19,Y2Al2CuSi4Ni2Ge2(PdS)4,21,4.1883463859558105,4.747013568878174,7.503207206726074,93.84745025634764,92.953369140625,90.8095016479492,13.6785766575649
eval_gen_partial_FM1_062.pt,20,KBaMnFe2Co3Cu3AsPb5S18,35,4.422581672668457,6.730081081390381,10.226910591125488,96.58615875244142,93.90445709228517,90.7464828491211,13.205168963436083
eval_gen_partial_FM1_062.pt,21,Gd2Cd3Cu(TeS)4,14,4.225661277770996,6.262082099914551,7.63031005859375,89.75146484375001,88.66192626953125,101.36044311523438,11.36115508259617
eval_gen_partial_FM1_062.pt,22,Ba2ThPt5(Se2S)4,20,5.054335594177246,5.572683334350587,14.561793327331543,91.71452331542969,86.88374328613283,83.75814819335938,9.150809848772285
eval_gen_partial_FM1_062.pt,23,Rb2BaHgAsP2(PdCl2)3,16,3.933089017868042,5.135978221893311,6.930346488952637,110.28632354736327,108.62525177001955,89.19140625,15.809763810772415
eval_gen_partial_FM1_062.pt,24,BeNb4Tl2Cr2As(I4N3)2,24,3.4762494564056396,5.665477752685547,6.894715785980225,111.12590789794922,103.29328155517577,89.63321685791016,27.951687895641935
eval_gen_partial_FM1_062.pt,25,NaLa2MgZnSb4Se7S4,20,7.2207770347595215,7.328110694885254,7.606861114501953,111.77888488769531,100.20571136474611,103.73469543457031,7.4573583528172795
eval_gen_partial_FM1_062.pt,26,InSnPd3Au3S4,12,4.233047962188721,4.240285873413086,4.6145477294921875,89.83979797363281,90.90605163574219,89.14683532714844,25.506175032252465
eval_gen_partial_FM1_062.pt,27,LiAl3Tl2(Se2F3)2,16,5.102357864379883,5.649184226989745,5.892230033874512,117.74069213867186,90.35462951660156,90.67242431640625,10.236306299991538
eval_gen_partial_FM1_062.pt,28,KLiAsSeS3,14,4.080678939819336,3.934331655502319,4.563315391540527,100.69614410400392,92.77305603027344,90.1235122680664,13.677471320236283
eval_gen_partial_FM1_062.pt,29,U2Cu3P4Pd4WSeNO3,19,4.274020671844482,5.807313442230225,8.413955688476562,107.70613098144533,101.64939880371094,101.90209197998045,13.709599166408971
eval_gen_partial_FM1_062.pt,30,CaYb2YTm(Bi2Rh)4,17,5.924293041229248,6.007648468017577,6.092442989349365,115.29270935058594,91.78346252441406,92.56324005126953,23.1605360560634
eval_gen_partial_FM1_062.pt,31,Cs5KUAlGa2Te3MoPSe10I,26,7.317242622375489,8.818922996520996,12.235477447509766,86.6906967163086,90.5621337890625,90.76702880859375,5.339551306547137
eval_gen_partial_FM1_062.pt,32,Dy5AlCu6SnHg4Ge5(SCl2)2,28,4.9431843757629395,6.498798847198487,9.762685775756836,101.8444595336914,106.65139007568361,89.31536102294922,15.327063371114658
eval_gen_partial_FM1_062.pt,33,PrLu2Cd2In2Se3S5,15,4.15640115737915,4.976078510284424,8.529709815979004,98.15302276611328,97.68020629882814,110.90106201171875,13.94420160566677
eval_gen_partial_FM1_062.pt,34,Ti6ZnPbSe4S7,19,6.126508235931397,6.217355251312256,6.542977809906006,91.03198242187501,76.87065887451172,81.78866577148439,7.614899906201791
eval_gen_partial_FM1_062.pt,35,Na2Ca2NdY7Cu5NiIr8(SeO3)2,34,7.217132091522218,7.055715084075929,7.58918571472168,81.29045104980469,88.71766662597658,105.32525634765625,13.825350857889642
eval_gen_partial_FM1_062.pt,36,Ca3YbNdZnGa4CuSnPd9S4,25,5.011772632598877,7.427119255065917,8.009376525878906,76.65261077880861,75.94023132324217,81.69662475585938,12.151453253177301
eval_gen_partial_FM1_062.pt,37,LiLaDyY2TiFe4CuNi(P3S2)2,22,3.6528568267822266,4.274798393249512,7.799708366394043,90.94515991210938,91.23073577880861,90.46115112304688,16.282062903424166
eval_gen_partial_FM1_062.pt,38,CaU2CdCuRh4Se4S7,20,5.283952713012695,7.1268181800842285,7.280891418457031,118.88897705078125,89.4548568725586,89.62972259521484,11.373234388794943
eval_gen_partial_FM1_062.pt,39,SmErThTi4V2Ni4Hg2As3P4W2N,25,4.79334020614624,5.962523460388183,7.8116960525512695,102.6040496826172,106.93315124511719,88.22901153564452,17.611674643008854
eval_gen_partial_FM1_062.pt,40,RbMg2Ge2Te7Au3(SeCl)2,19,5.392746925354004,7.591655731201174,11.200050354003906,93.61255645751952,91.05712890625,91.79726409912111,7.234396476547884
eval_gen_partial_FM1_062.pt,41,Dy4TaTl3P4Pd4Se4O,21,3.836046695709229,7.0889649391174325,8.371772766113281,90.68195343017578,90.33834838867188,89.67098999023439,16.96402494306978
eval_gen_partial_FM1_062.pt,42,Gd3BeAl3TlCu2P6Pt3S7,26,4.382319927215576,5.385417938232422,8.145352363586426,91.47268676757812,89.23090362548828,90.18563842773438,16.3218888460645
eval_gen_partial_FM1_062.pt,43,K5Li3Pr3Ge2Se6S7,26,7.304633140563965,7.532557487487792,8.100199699401855,82.30253601074219,76.23913574218751,77.5157470703125,5.846651845007382
eval_gen_partial_FM1_062.pt,44,ScCd2FeAsS3O4,12,3.6670401096343994,3.6469192504882812,9.747133255004883,91.58517456054688,91.00859069824219,118.03173828125,8.100472734961386
eval_gen_partial_FM1_062.pt,45,KRbCe2DyFeNi5P6(PdSe2)3,26,5.004252910614014,8.282703399658203,8.996371269226074,112.32569885253906,92.06941223144531,90.74125671386719,9.134643066315864
eval_gen_partial_FM1_062.pt,46,Ba2Ni11GeSe6S8N,29,6.149343967437744,6.481245040893554,6.926779747009277,100.72209167480469,83.37456512451172,90.17095947265626,10.70827654522717
eval_gen_partial_FM1_062.pt,47,BaCaLaY2Sb2Te6(PPt)3,19,3.9475522041320805,6.656930923461915,7.333933353424072,116.00383758544922,90.67239379882814,92.61932373046876,20.947329714156595
eval_gen_partial_FM1_062.pt,48,La2Ce3ScCu2(PdS3)4,24,4.668717384338379,4.704237937927246,8.468815803527832,101.54847717285156,104.09088134765625,90.12653350830077,15.812360259754824
eval_gen_partial_FM1_062.pt,49,Ba2PrEuAlNi3Sn2(Se4S3)2,24,4.780652046203613,5.6801486015319815,9.421609878540039,100.77348327636719,104.18264770507812,89.80470275878906,12.49735656861777
eval_gen_partial_FM1_062.pt,50,Ca2Ce3Cu3Si5Ni(Pd2O)3,23,5.79927396774292,6.382348537445068,7.7193427085876465,100.56957244873047,106.6092758178711,89.90583038330078,9.74225185306314
eval_gen_partial_FM1_062.pt,51,LiCa3Pd4(PtI3)2,16,5.086772918701172,5.044342994689941,5.722169399261475,100.87620544433594,104.22271728515625,91.75439453125,20.316199587511857
eval_gen_partial_FM1_062.pt,52,Cs3KCo2SnHgMo4(PBr2)4,24,3.3930406570434575,5.5936665534973145,6.42331600189209,94.77194213867189,90.50349426269531,90.18275451660158,27.636632517706936
eval_gen_partial_FM1_062.pt,53,CsNbCu3Te8P(Pt2Se)2,20,4.315019607543945,4.463925361633301,9.237396240234375,91.01861572265625,92.4460678100586,90.82673645019531,22.485199188672794
eval_gen_partial_FM1_062.pt,54,NaCaCeSnGe3AsPPd7F6,22,5.0890655517578125,5.303377151489258,5.940998077392578,111.92730712890626,92.05567169189455,89.80149841308594,16.80923805798623
eval_gen_partial_FM1_062.pt,55,BaYb2CrCu4PbS10,19,4.436610221862793,4.448945999145508,8.896392822265625,99.96023559570312,101.22007751464844,94.36721038818358,12.979454998201719
eval_gen_partial_FM1_062.pt,56,DyY5Ni3Sn2P6Se5,22,4.124283790588379,5.852797985076903,11.277783393859863,99.81185913085939,101.7748336791992,90.14842224121094,10.13241950336593
eval_gen_partial_FM1_062.pt,57,Na3SmAgHgTe4(SeO3)2,18,5.85455846786499,7.076143264770507,7.323127746582031,110.29695129394531,88.57400512695312,88.32887268066406,7.548955186550146
eval_gen_partial_FM1_062.pt,58,ErUNb9As4Ir13,28,7.87400484085083,8.160041809082031,7.368504524230957,63.51809310913086,62.608169555664055,60.35040283203124,19.14556404104669
eval_gen_partial_FM1_062.pt,59,CaTm2Cu4Ni4Sb2As2PPbSe5,22,4.6006598472595215,4.531351566314696,11.765397071838379,86.39067840576172,86.38268280029297,84.08446502685547,12.932688005688965
eval_gen_partial_FM1_062.pt,60,Ca8La2In6Sn2(PPd2)3,27,4.612794876098633,4.973286151885986,8.504815101623535,100.78958892822267,100.03569030761717,90.25914001464845,19.86635841196346
eval_gen_partial_FM1_062.pt,61,Ho4(GaPt)3,10,4.773150444030762,4.945472717285156,4.881832599639893,63.93090820312501,64.19373321533203,61.953758239746094,27.604233817972368
eval_gen_partial_FM1_062.pt,62,LaCeCuNiAs2P2Pd,9,3.5280013084411626,3.739393711090088,5.593542098999023,108.3037109375,108.10665130615234,89.25332641601564,18.02051666783349
eval_gen_FM2.pt,1,Rb2Li2DyPaSn(Se3O2)2,17,4.530362129211426,4.7408623695373535,5.102669715881348,93.108642578125,87.43130493164064,89.19850158691406,18.758597916489876
eval_gen_FM2.pt,2,Pr3(Pd5S7)2,27,3.953984498977661,7.086939334869385,7.306769847869873,111.69620513916016,89.21449279785156,90.34618377685547,16.898563694950397
eval_gen_FM2.pt,3,ErCr7PdRhWNO20,32,6.319524288177491,6.373358249664306,7.717833518981934,85.96131134033203,71.75605010986328,77.6430892944336,7.245997209872311
eval_gen_FM2.pt,4,Sr4VCu6Ni3Cl4(O5F)2,30,5.948472023010254,6.800331592559814,7.51579475402832,110.87286376953125,97.42347717285156,89.92451477050781,7.663884568164523
eval_gen_FM2.pt,5,CsRb2CuSb2AsWCl7O5,20,6.870253086090087,6.8066182136535645,6.94921350479126,69.53903198242188,68.68236541748048,71.68602752685545,7.179739831576706
eval_gen_FM2.pt,6,Cs2Li2Ta2AgAsHS6O5,20,5.577674865722655,7.185368061065674,7.739582061767578,113.42806243896484,89.49917602539062,90.6217727661133,6.405281679186982
eval_gen_FM2.pt,7,Rb2SrLi2PrUZn2Ge3(Se3O5)2,28,4.999154090881348,6.944891929626464,8.265785217285156,108.69414520263673,96.90384674072266,101.82008361816406,10.40811372391518
eval_gen_FM2.pt,8,Ba2Ca4LaIn2CoCuBi3(Cl3O7)2,34,6.265052795410156,6.334198951721191,10.351593017578125,90.30390930175781,89.33084869384766,93.45241546630861,8.057912541627752
eval_gen_FM2.pt,9,Rb2Sr3CaCu3Bi2P3(ClO9)2,34,6.623962402343749,6.554992675781251,10.31008529663086,75.12031555175781,71.73770141601562,60.36322021484375,6.9481711733082685
eval_gen_FM2.pt,10,KCa2PrCr2CuAgPbSClO9,20,4.279730796813965,5.914397716522216,8.233891487121582,71.39102172851562,75.50531005859375,70.26716613769531,8.634022608824363
eval_gen_FM2.pt,11,CsRb2SrNpSiP2HNO12,22,5.560640335083008,5.612064838409424,5.906201362609863,87.5500717163086,92.3997802734375,89.26977539062499,8.354004978477308
eval_gen_FM2.pt,12,BaLaFeCoAg2Bi2P2O13,23,3.892925024032593,4.447167873382569,7.720792770385742,88.48188781738283,91.69122314453125,90.541748046875,16.09671496128909
eval_gen_FM2.pt,13,KSrLiLaCuAg3Se5S2O7,22,4.219527244567871,4.8077383041381845,9.523665428161621,92.4129104614258,92.06858062744142,99.60514831542969,10.747437133068255
eval_gen_FM2.pt,14,Ba2Ca7DyY2Cu5S8Cl3O7,35,4.1006927490234375,6.557154178619385,14.66501235961914,98.97206115722658,98.05119323730469,88.93015289306639,7.268541209493109
eval_gen_FM2.pt,15,NaTaV2PbW2Cl2O13,22,4.365283012390137,4.566036701202393,5.44723653793335,85.20360565185547,92.62124633789061,89.04724884033203,17.819629839686108
eval_gen_FM2.pt,16,K2LiTmCuNi2BAs2(HO6)2,24,5.3952226638793945,5.453080654144286,6.213563442230225,116.10601043701173,91.29261779785158,91.18642425537111,7.994613301451181
eval_gen_FM2.pt,17,KSrLiMgTl2H4(Cl3O2)2,20,5.738793849945068,6.795960426330566,6.889101028442383,71.4417953491211,64.46757507324219,63.80878067016601,6.551195132427167
eval_gen_FM2.pt,18,Rb2Li4GdTl5Cl4(O2F3)2,26,6.576588153839112,6.905207157135011,7.598693370819092,71.11316680908205,79.01973724365234,78.10055541992188,8.903648614092498
eval_gen_FM2.pt,19,RbLiCaHClO2,28,5.204201221466065,5.1319799423217765,5.384740352630615,98.03495788574219,98.48509979248047,92.91398620605469,9.50187937706164
eval_gen_FM2.pt,20,KLiCe2Al4TlCdCu3B2HW2(SO)10,38,6.191427230834961,7.737164020538329,7.938830375671387,98.40173339843751,90.48878479003908,90.24452972412111,8.000676216176617
eval_gen_FM2.pt,21,Na2LiLa7Ti2Nb3ZnCu3(SbS)10,39,7.226220607757568,9.025783538818358,9.15659236907959,85.37207794189453,81.23188018798828,84.9027557373047,9.042613222430573
eval_gen_FM2.pt,22,Ba3NaLi3ZrCu2AgS5Cl6,22,6.21172571182251,6.516149997711181,6.277028560638428,68.21436309814452,67.50661468505861,63.43158721923827,9.415069549852612
eval_gen_FM2.pt,23,Na2Li2GdVBiSbAsO15,24,5.436802387237549,5.5268049240112305,5.64594841003418,86.25416564941406,94.17089080810547,89.29873657226561,8.987622416802914
eval_gen_FM2.pt,24,K2RbLa4PrCo2Cu(Cl2O3)3,26,6.367912769317626,6.2811923027038565,6.826851844787598,111.3229446411133,113.95858001708986,93.1190185546875,10.282885544091853
eval_gen_FM2.pt,25,Rb3Na2CaMgBeCrCu6NiH2Cl7O13,38,3.694011449813843,5.2121429443359375,10.569548606872559,92.73410034179688,92.68395233154295,89.60793304443361,10.843569494956611
eval_gen_FM2.pt,26,NaLi5NdYCoSn2W(SO2)4,24,6.296765327453614,6.2981786727905265,5.821634769439697,119.85578918457031,97.88581085205077,90.65896606445312,8.638007263185694
eval_gen_FM2.pt,27,K2NaSr2LiLaDyInCu2PtS12,24,4.60600471496582,5.589174747467041,6.316074848175049,112.21133422851562,96.31713104248047,90.31505584716797,15.630874841460349
eval_gen_FM2.pt,28,Li3ZnNi2BPt(OF)6,20,3.689445734024048,3.9748578071594234,7.556543827056885,90.32670593261719,89.76036071777344,93.59413146972658,9.301440105454537
eval_gen_FM2.pt,29,KBa2NaSr4LiI3(Cl3O2)2,22,4.921874046325684,5.014505863189697,10.315665245056152,87.88916015625001,90.14430236816406,83.75803375244139,8.874121075158971
eval_gen_FM2.pt,30,Ba2LaNd4CuBiPt4(SF)11,35,4.794675350189209,7.831397056579589,12.984541893005371,88.55235290527344,84.69364929199217,82.17599487304688,8.995165640637662
eval_gen_FM2.pt,31,CsCaY2Ni2BiB2SbO11F7,28,6.3643250465393075,6.3759779930114755,6.683743476867676,61.53128814697266,68.7525405883789,68.24327850341797,8.698181687815163
eval_gen_FM2.pt,32,BaLiThZn2CdCuNi2As2Se4O11,26,4.60405969619751,5.704220294952393,10.476500511169434,98.39012908935547,96.08273315429688,94.40097045898438,8.886798520706341
eval_gen_FM2.pt,33,LiTbMnFeSiAgBiSb(O5F)2,20,4.611555576324463,4.698617935180665,6.234311580657959,100.39900207519531,99.49674224853516,90.34562683105469,11.936277780703671
eval_gen_FM2.pt,34,Li6In3CuBi2(SO3)3,24,4.407589912414551,5.8860483169555655,8.130859375,99.99958801269531,98.64743041992188,101.58658599853517,9.210708442525664
eval_gen_FM2.pt,35,CsNaDy2HfThCd2CuPd3S7(ClO2)3,28,6.595811843872071,6.704566478729248,6.637526988983154,117.58990478515625,100.83952331542969,90.81646728515625,12.601952547637339
eval_gen_FM2.pt,36,Ba6In2CuBIrPb3S6ClO10F,32,7.40347957611084,7.311753749847412,8.049376487731934,74.19235229492188,70.861083984375,71.90922546386719,10.151572653289378
eval_gen_FM2.pt,37,K5La2Cu5Se2ClO13F4,32,4.72525691986084,6.735452651977538,7.393831253051758,104.76187896728516,100.67538452148438,94.67294311523439,9.506436417113393
eval_gen_FM2.pt,38,SrLi2LaMn2Sb2IrRu(S3O4)2,24,5.713709831237793,5.756115436553954,6.0564703941345215,102.99690246582033,98.18635559082031,107.25794982910158,11.101726543848741
eval_gen_FM2.pt,39,K2Li2Ca3YBeCdBiMoN3O4F5,24,6.035158634185791,5.922057628631592,6.130727291107178,101.17205810546875,92.95072174072266,96.62465667724611,7.242018026845032
eval_gen_FM2.pt,40,Na3CaLaCoCuTeO7F,16,3.8375422954559326,4.322457313537597,6.5309224128723145,81.01194763183594,83.93650817871095,82.3649215698242,9.886235040614174
eval_gen_FM2.pt,41,Y3Tl2Cu4Mo2Se7O6,24,4.123863697052002,5.343713283538818,8.3783540725708,86.48330688476564,92.38651275634766,90.5206298828125,15.965621615554063
eval_gen_FM2.pt,42,Eu3MnNb3CoCu2BiO19,30,4.184426307678223,4.218844413757324,12.482952117919922,88.20252990722656,89.44194030761719,88.8254165649414,11.225013321850176
eval_gen_FM2.pt,43,La2LuScCr2NiGeBiSb2Pt(S4O5)2,30,6.399717330932617,6.522733211517333,7.161682605743408,114.1013412475586,113.8543930053711,92.49372863769533,12.3489159226726
eval_gen_FM2.pt,44,Ba2NaCa2Be2Pd2Se5O6,20,4.17033576965332,5.713054180145264,6.628365516662598,97.26244354248047,102.22594451904297,92.29195404052734,11.952987667157007
eval_gen_FM2.pt,45,RbTlInFe2BiAsP2WO20,30,5.233834743499756,5.558339118957519,6.20095682144165,90.27324676513672,92.46199798583984,89.82433319091797,12.586224539412877
eval_gen_FM2.pt,46,LaHo2LuCr2Cd2Cu4Ni(SO5)3,31,3.4530303478240967,3.4856991767883296,16.105873107910156,91.36753845214845,91.08594512939453,107.25499725341798,14.554780559451585
eval_gen_FM2.pt,47,NaNdMn3Ag3(SeO)4,16,4.8818864822387695,4.764655113220215,4.565432548522949,89.80388641357423,92.59686279296876,95.61218261718749,16.286446027846786
eval_gen_FM2.pt,48,K2MgMn2TcSb(Cl3O4)2,21,4.944668769836426,5.351991653442382,5.5115437507629395,89.82070922851564,90.7337646484375,89.29887390136719,8.800136226353471
eval_gen_FM2.pt,49,Li2Ca2CeCoCuTeH(ClO5)2,21,4.018092632293701,7.688447952270508,7.9788360595703125,86.43423461914061,78.9704818725586,82.26953887939453,4.963829739033756
eval_gen_FM2.pt,50,Li2Mn2ZnSnO6,24,4.984520435333252,5.183754920959473,6.292637825012207,102.15228271484375,93.49097442626955,109.85926055908203,9.066592637788025
eval_gen_FM2.pt,51,Cr5Cu2SiNi2PWO20,32,5.254118919372559,5.289299964904785,7.022338390350342,107.95519256591798,109.74105834960938,93.27864074707031,10.311654466662947