source_pt,idx,formula,n_atom,a,b,c,alpha,beta,gamma,density
eval_gen_partial_FM0_062.pt,17,Li3PmU2(InPd2)2,12,4.6404523849487305,6.073484420776367,6.105859756469727,117.72708129882814,88.1982650756836,90.16083526611328,14.149297574608417
eval_gen_partial_FM0_062.pt,18,KRb2NaNd2Mg4Ga2Ru2CI2N3,20,4.892510890960693,5.861314296722412,7.432653903961182,89.350830078125,87.45426177978516,89.17378234863281,9.89120077312403
eval_gen_partial_FM0_062.pt,19,SrLi2In3Sb2,8,4.5782856941223145,5.300032138824463,5.07004976272583,84.21174621582031,65.51838684082033,64.891357421875,11.339742278132471
eval_gen_partial_FM0_062.pt,20,Li2Pm2MgHg5N,11,3.908466100692749,6.310133457183839,6.749814033508301,98.85597229003906,87.81481170654297,91.03141784667969,13.59059144322791
eval_gen_partial_FM0_062.pt,21,Sr2LuMgIn3Ag2Hg,10,4.504609107971191,4.540021896362305,4.561747074127197,90.67763519287111,91.5120620727539,90.47198486328125,20.21659822653889
eval_gen_partial_FM0_062.pt,22,Dy2Y5Th2MgAlTlInGaAgBi3Pd5Ru2PbW2,28,5.934303283691406,7.870456695556641,9.329452514648438,93.59458923339844,95.39607238769531,89.70339202880861,14.258938318289855
eval_gen_partial_FM0_062.pt,23,CaEu2(MgSi)2,7,3.910343647003174,4.448904514312745,8.07999038696289,90.28108215332033,91.15823364257811,89.17029571533203,5.303339322010754
eval_gen_partial_FM0_062.pt,24,Tb4SmTiAlSn(GeC)2,12,5.054595470428467,5.1651835441589355,5.0828328132629395,89.22408294677736,89.61295318603517,91.04127502441406,14.38081846286165
eval_gen_partial_FM0_062.pt,25,PrMgGaNi2Sn5Sb4,14,6.261667251586914,6.849698543548583,6.788190841674805,111.3302764892578,90.28749084472656,90.2469711303711,8.77375885144739
eval_gen_partial_FM0_062.pt,26,LaDyPu2Sn2GeAu,16,5.634439945220947,5.602854251861572,7.531041622161865,90.368896484375,89.78722381591797,92.05422973632814,18.12193425221242
eval_gen_partial_FM0_062.pt,27,Li3Mn(BiTe)2,8,4.1776347160339355,4.165390491485596,6.677407264709473,65.10844421386719,69.60862731933594,59.61326599121094,13.887428169708981
eval_gen_partial_FM0_062.pt,28,Ba2CaMgTlSnHg,14,5.189211845397949,5.709950447082519,5.595007419586182,80.67558288574219,71.04879760742188,76.41610717773438,18.8814973366038
eval_gen_partial_FM0_062.pt,29,Th2ScAl2NiW2,8,4.826294422149658,4.822297096252441,5.539926052093506,114.6831512451172,111.84608459472658,92.14465332031251,15.51922442850223
eval_gen_partial_FM0_062.pt,30,Li2Ta2Ti(Co3Hg)2,13,3.8802185058593746,4.0074143409729,6.123593330383301,90.64649963378906,90.50247192382814,94.20240020751953,20.608237379545383
eval_gen_partial_FM0_062.pt,31,Li2Ca5Mg2Nb3AlFe(Ni2Ir3)2,24,8.046738624572754,8.072129249572756,8.032539367675781,64.82211303710939,64.18178558349608,60.955482482910156,8.457524293058887
eval_gen_partial_FM0_062.pt,32,Tb2Sm2Mg3Al5,12,4.880876541137694,5.5561394691467285,5.618813514709473,109.38753509521484,87.84323883056642,88.5956268310547,9.56126761777482
eval_gen_partial_FM0_062.pt,33,NdMg2TcSb,10,5.113498210906982,5.171825885772705,5.478858947753906,110.12308502197266,101.75083160400392,90.57716369628905,10.327107488813573
eval_gen_partial_FM0_062.pt,34,Ce2Y2Th2Tl4Pb2C3,15,5.451993942260742,6.103212833404542,5.930966854095459,93.15402221679688,79.96151733398438,82.05453491210938,18.958060786853054
eval_gen_partial_FM0_062.pt,35,VCr3Ga2Ni7Bi8Rh3,24,4.231039524078369,4.593072891235352,8.1038236618042,88.99311065673828,89.59568786621094,86.2016830444336,28.93599170835595
eval_gen_partial_FM0_062.pt,36,NdMgInSiHg,5,3.883488416671753,4.315113544464111,4.928895950317383,115.85169219970702,92.66946411132812,90.61917877197266,11.458154728966328
eval_gen_partial_FM0_062.pt,37,Na4ZnCu6Ag4GeS10,26,5.421123504638673,5.710354804992677,13.146512031555176,90.39991760253908,89.98666381835939,90.33251953125,5.5632623501385865
eval_gen_partial_FM0_062.pt,38,La2YbZnInAg,12,5.29642915725708,6.619174003601075,6.684692859649658,101.02291870117188,87.89715576171876,91.58647918701172,10.678240378630987
eval_gen_partial_FM0_062.pt,39,Pa2Mn3Co3Bi3TeRh4,16,5.291651248931885,5.933269500732422,5.959110736846924,95.50975036621094,74.91948699951172,74.6390609741211,19.07908120992344
eval_gen_partial_FM0_062.pt,40,Ac2MgSn,8,4.134572982788086,4.1446099281311035,6.347407817840576,71.53860473632814,72.67728424072266,61.41974639892579,22.22964276137917
eval_gen_partial_FM0_062.pt,41,SmMgCdNiBi2,12,5.573520183563232,5.531795501708985,6.718255996704102,109.89768981933595,106.81598663330078,105.24359130859376,14.854215748529022
eval_gen_partial_FM0_062.pt,42,HoLuMg2Be5Fe2SiNi6,18,4.199789047241211,5.258420467376709,6.104048252105713,113.00748443603517,104.57210540771486,90.8375244140625,12.901620769022033
eval_gen_partial_FM0_062.pt,43,Na2Y4HoMgScCdCo3HgI4,18,4.357931137084961,7.2239160537719735,7.326232433319092,95.29975128173828,82.69949340820312,84.00979614257812,11.988779562313953
eval_gen_partial_FM0_062.pt,44,MgCd2GeBi4,16,4.321513652801514,8.396280288696289,12.397247314453125,110.91097259521484,98.96955871582031,102.38032531738281,9.68725564236698
eval_gen_partial_FM0_062.pt,45,AcLa7Ce5C8,21,3.30712890625,3.310647010803222,3.2991909980773926,61.40666961669921,61.54027557373047,63.13861083984375,124.19970357650429
eval_gen_partial_FM0_062.pt,46,Li2Ac(TiC)2,7,4.299333572387695,4.341991424560547,4.829563617706299,90.35710906982422,88.81329345703124,90.37685394287111,6.64404391655942
eval_gen_partial_FM0_062.pt,47,Li2Mg4ReHg2Rh4Pb3,16,4.683404445648193,5.6900763511657715,6.236888885498047,117.39012908935547,94.07009887695314,90.28873443603514,19.55265130501185
eval_gen_partial_FM0_062.pt,48,ErAlFeSiAg,10,4.198659420013428,4.21568489074707,4.9067559242248535,112.65008544921875,110.12305450439453,101.720703125,18.477588755411873
eval_gen_partial_FM0_062.pt,49,Li2Ca2Y2Al2Tl2NiP4Ru,16,4.565332412719727,6.123401641845703,6.221168041229248,118.5750732421875,90.63864135742186,89.32585144042969,11.071611110960532
eval_gen_partial_FM0_062.pt,50,Sr2Tl6In4GaCu2AgRh2,18,6.560637474060059,6.765268802642823,7.053553581237793,84.42926025390626,71.43194580078126,70.89763641357422,14.041892209995687
eval_gen_partial_FM0_062.pt,51,KRbTm4Ni4PdCl5,16,5.366957664489746,6.342867374420167,6.424952507019043,110.78926086425781,87.15422821044922,88.0164566040039,10.739562876351615
eval_gen_partial_FM0_062.pt,52,Mg5Cu2NiHg(Sb2Ir)4,21,6.226008892059325,7.900851726531982,7.987653732299805,100.7255859375,82.1419448852539,83.88712310791016,9.864408943214837
eval_gen_partial_FM0_062.pt,53,LiCeThMgSiTe4,9,2.9104735851287837,2.991114377975464,2.8831989765167236,113.73895263671876,92.15878295898438,97.0760498046875,68.91338416359244
eval_gen_partial_FM0_062.pt,54,RbYbTm2MgBeTlZn2CdCu2AgPPdS7,22,3.8949654102325444,5.752294540405274,7.338878631591797,106.19025421142578,94.59562683105469,106.63005828857422,18.657374553319684
eval_gen_partial_FM0_062.pt,55,Mg2ZrAl(NiTe)2,8,4.646490097045898,4.567228317260742,6.860116958618164,87.9969711303711,86.41672515869139,91.67900848388672,6.17141066122151
eval_gen_partial_FM0_062.pt,56,KCaAcTl2Cd2Ga(HgRh)2,12,5.3969621658325195,5.489823818206786,9.197141647338867,86.15022277832031,87.67597198486328,109.28028869628908,10.482674187607907
eval_gen_partial_FM0_062.pt,57,Li5Tm(BeAl2)2,12,3.549773931503296,3.9125411510467534,4.968441009521484,101.92987060546875,105.82868957519531,91.95150756835939,8.46501711911165
eval_gen_partial_FM0_062.pt,58,SrGa3NiHg,6,4.393118381500244,4.647496223449707,5.717923164367676,105.0502395629883,102.90141296386719,90.50577545166017,8.423823528005231
eval_gen_partial_FM0_062.pt,59,LiDy2Mg2Cd2Ag2Hg,10,5.4912004470825195,5.773885250091552,5.576266765594482,71.52328491210938,62.80946350097656,61.0361442565918,12.424661855269717
eval_gen_partial_FM0_062.pt,60,GdU2Ti3AlFe2Co2SnGe6,18,4.20477819442749,4.25368595123291,13.45699691772461,90.4323196411133,90.07234954833986,118.39868164062499,12.45507656916993
eval_gen_partial_FM0_062.pt,61,NdYHf4V2(BiW)2,12,4.165315628051758,5.5037994384765625,6.398935794830322,100.40699768066408,103.24047851562499,90.88017272949219,21.7294297699727
eval_gen_partial_FM0_062.pt,62,SrCeMg2AlNi2MoN3,11,4.566883563995361,4.837615013122559,5.192233562469482,97.97677612304688,88.29235076904297,88.95220184326173,8.172017987754511
eval_gen_FM1.pt,1,Y2CdIn2AsSe(ICl)2,11,3.4983239173889156,3.424223899841308,7.899467945098877,84.02668762207033,90.93142700195314,100.42456817626953,17.912323362005644
eval_gen_FM1.pt,2,Ca2ScBi2AuSe2,8,4.1957197189331055,5.1814093589782715,5.545741081237793,96.11729431152344,77.90558624267578,79.79859924316406,12.997364397074707
eval_gen_FM1.pt,3,YbPmTa2GePt(SeBr)2,10,4.135356426239014,5.485744476318359,7.539834976196289,90.92151641845705,89.8045425415039,88.97415924072266,12.288280740305696
eval_gen_FM1.pt,4,Cs2Nb2Cr6SiAsS18,30,6.8223538398742685,7.775385856628419,9.117608070373535,89.96515655517578,87.12135314941408,87.9039306640625,4.966513151493581
eval_gen_FM1.pt,5,YbCeEu2P4Pt3Au2,13,5.652045249938966,5.717082977294923,5.523828506469727,115.73481750488283,93.89945220947266,92.4295654296875,17.863457325674982
eval_gen_FM1.pt,6,Na2SiNiHg2(WS5)2,18,3.816621065139771,5.532199382781982,11.891140937805176,98.21861267089844,98.1083221435547,105.68147277832031,8.638407602810561
eval_gen_FM1.pt,7,KRb2Cu2Pd2Se2(SI)2,13,3.699487924575805,4.42379093170166,7.163325309753418,102.9268798828125,101.68113708496094,105.21887969970703,16.08250022072401
eval_gen_FM1.pt,8,Rb3LaCe2ZnCu3PC2Se5N8,26,5.006387233734131,6.3323349952697745,7.996946334838867,107.138916015625,101.45845794677734,104.95642089843751,11.098127767975202
eval_gen_FM1.pt,9,RbBa2Ca2In2CuSn2Ge2Pt3I7N,23,7.242183685302734,7.418651103973389,8.181992530822754,84.23004150390625,87.34596252441408,88.8055648803711,9.897475478546674
eval_gen_FM1.pt,10,YbSmDyInGaCuGe4(PtS)5,20,3.535396814346314,5.597785472869874,8.722960472106934,99.58368682861328,95.62093353271486,91.33528137207033,21.193101476626772
eval_gen_FM1.pt,11,KSmDy2VSi3Ni4BPHS4I,20,4.7045464515686035,4.971769809722901,9.503711700439453,109.89428710937501,106.88323211669922,88.94688415527344,9.855687659372267
eval_gen_FM1.pt,12,GdLuSb2(PdSe2)2,10,3.8255884647369385,4.201512336730957,7.624085903167725,93.398681640625,89.2256546020508,89.36917877197267,14.99426180520253
eval_gen_FM1.pt,13,Ca4La4TlP(RhS5)2,22,4.567418098449707,7.0895819664001465,8.427396774291992,90.92840576171875,88.79261779785156,90.20105743408203,8.995419670594403
eval_gen_FM1.pt,14,LaDyY2Cu4Ni2P4S4O,19,3.94304871559143,6.086140155792237,7.392387390136719,95.06272888183592,92.99745178222655,91.01579284667969,10.53173246014373
eval_gen_FM1.pt,15,KSm2TlGePdSe2,8,4.701053142547607,4.869783401489258,5.07646369934082,92.13771057128906,78.68925476074219,79.86360168457031,13.07988275622404
eval_gen_FM1.pt,16,Er3U2AsPd2Pt3Se4,15,3.7944202423095703,4.434477806091309,8.697848320007324,95.33432006835938,93.19828033447266,95.51022338867188,24.858230145947484
eval_gen_FM1.pt,17,CsZr2U3GeRu(CS2)2,14,3.2918202877044678,5.308831214904785,11.343999862670898,96.74720764160156,89.30628204345703,109.76174926757814,12.153310242411742
eval_gen_FM1.pt,18,EuNbGe2Sb4CS2N,12,3.782339096069336,6.3449320793151855,7.090961933135986,90.69029998779295,91.13304901123048,89.69721984863281,9.441839901163771
eval_gen_FM1.pt,19,Y2Al2CuSi4Ni2Ge2(PdS)4,21,4.1883463859558105,4.747013568878174,7.503207206726074,93.84745025634764,92.953369140625,90.8095016479492,13.6785766575649
eval_gen_FM1.pt,20,KBaMnFe2Co3Cu3AsPb5S18,35,4.422581672668457,6.730081081390381,10.226910591125488,96.58615875244142,93.90445709228517,90.7464828491211,13.205168963436083
eval_gen_FM1.pt,21,Gd2Cd3Cu(TeS)4,14,4.225661277770996,6.262082099914551,7.63031005859375,89.75146484375001,88.66192626953125,101.36044311523438,11.36115508259617
eval_gen_FM1.pt,22,Ba2ThPt5(Se2S)4,20,5.054335594177246,5.572683334350587,14.561793327331543,91.71452331542969,86.88374328613283,83.75814819335938,9.150809848772285
eval_gen_FM1.pt,23,Rb2BaHgAsP2(PdCl2)3,16,3.933089017868042,5.135978221893311,6.930346488952637,110.28632354736327,108.62525177001955,89.19140625,15.809763810772415
eval_gen_FM1.pt,24,BeNb4Tl2Cr2As(I4N3)2,24,3.4762494564056396,5.665477752685547,6.894715785980225,111.12590789794922,103.29328155517577,89.63321685791016,27.951687895641935
eval_gen_FM1.pt,25,NaLa2MgZnSb4Se7S4,20,7.2207770347595215,7.328110694885254,7.606861114501953,111.77888488769531,100.20571136474611,103.73469543457031,7.4573583528172795
eval_gen_FM1.pt,26,InSnPd3Au3S4,12,4.233047962188721,4.240285873413086,4.6145477294921875,89.83979797363281,90.90605163574219,89.14683532714844,25.506175032252465
eval_gen_FM1.pt,27,LiAl3Tl2(Se2F3)2,16,5.102357864379883,5.649184226989745,5.892230033874512,117.74069213867186,90.35462951660156,90.67242431640625,10.236306299991538
eval_gen_FM1.pt,28,KLiAsSeS3,14,4.080678939819336,3.934331655502319,4.563315391540527,100.69614410400392,92.77305603027344,90.1235122680664,13.677471320236283
eval_gen_FM1.pt,29,U2Cu3P4Pd4WSeNO3,19,4.274020671844482,5.807313442230225,8.413955688476562,107.70613098144533,101.64939880371094,101.90209197998045,13.709599166408971
eval_gen_FM1.pt,30,CaYb2YTm(Bi2Rh)4,17,5.924293041229248,6.007648468017577,6.092442989349365,115.29270935058594,91.78346252441406,92.56324005126953,23.1605360560634
eval_gen_FM1.pt,31,Cs5KUAlGa2Te3MoPSe10I,26,7.317242622375489,8.818922996520996,12.235477447509766,86.6906967163086,90.5621337890625,90.76702880859375,5.339551306547137
eval_gen_FM1.pt,32,Dy5AlCu6SnHg4Ge5(SCl2)2,28,4.9431843757629395,6.498798847198487,9.762685775756836,101.8444595336914,106.65139007568361,89.31536102294922,15.327063371114658
eval_gen_FM1.pt,33,PrLu2Cd2In2Se3S5,15,4.15640115737915,4.976078510284424,8.529709815979004,98.15302276611328,97.68020629882814,110.90106201171875,13.94420160566677
eval_gen_FM1.pt,34,Ti6ZnPbSe4S7,19,6.126508235931397,6.217355251312256,6.542977809906006,91.03198242187501,76.87065887451172,81.78866577148439,7.614899906201791
eval_gen_FM1.pt,35,Na2Ca2NdY7Cu5NiIr8(SeO3)2,34,7.217132091522218,7.055715084075929,7.58918571472168,81.29045104980469,88.71766662597658,105.32525634765625,13.825350857889642
eval_gen_FM1.pt,36,Ca3YbNdZnGa4CuSnPd9S4,25,5.011772632598877,7.427119255065917,8.009376525878906,76.65261077880861,75.94023132324217,81.69662475585938,12.151453253177301
eval_gen_FM1.pt,37,LiLaDyY2TiFe4CuNi(P3S2)2,22,3.6528568267822266,4.274798393249512,7.799708366394043,90.94515991210938,91.23073577880861,90.46115112304688,16.282062903424166
eval_gen_FM1.pt,38,CaU2CdCuRh4Se4S7,20,5.283952713012695,7.1268181800842285,7.280891418457031,118.88897705078125,89.4548568725586,89.62972259521484,11.373234388794943
eval_gen_FM1.pt,39,SmErThTi4V2Ni4Hg2As3P4W2N,25,4.79334020614624,5.962523460388183,7.8116960525512695,102.6040496826172,106.93315124511719,88.22901153564452,17.611674643008854
eval_gen_FM1.pt,40,RbMg2Ge2Te7Au3(SeCl)2,19,5.392746925354004,7.591655731201174,11.200050354003906,93.61255645751952,91.05712890625,91.79726409912111,7.234396476547884
eval_gen_FM1.pt,41,Dy4TaTl3P4Pd4Se4O,21,3.836046695709229,7.0889649391174325,8.371772766113281,90.68195343017578,90.33834838867188,89.67098999023439,16.96402494306978
eval_gen_FM1.pt,42,Gd3BeAl3TlCu2P6Pt3S7,26,4.382319927215576,5.385417938232422,8.145352363586426,91.47268676757812,89.23090362548828,90.18563842773438,16.3218888460645
eval_gen_FM1.pt,43,K5Li3Pr3Ge2Se6S7,26,7.304633140563965,7.532557487487792,8.100199699401855,82.30253601074219,76.23913574218751,77.5157470703125,5.846651845007382
eval_gen_FM1.pt,44,ScCd2FeAsS3O4,12,3.6670401096343994,3.6469192504882812,9.747133255004883,91.58517456054688,91.00859069824219,118.03173828125,8.100472734961386
eval_gen_FM1.pt,45,KRbCe2DyFeNi5P6(PdSe2)3,26,5.004252910614014,8.282703399658203,8.996371269226074,112.32569885253906,92.06941223144531,90.74125671386719,9.134643066315864
eval_gen_FM1.pt,46,Ba2Ni11GeSe6S8N,29,6.149343967437744,6.481245040893554,6.926779747009277,100.72209167480469,83.37456512451172,90.17095947265626,10.70827654522717
eval_gen_FM1.pt,47,BaCaLaY2Sb2Te6(PPt)3,19,3.9475522041320805,6.656930923461915,7.333933353424072,116.00383758544922,90.67239379882814,92.61932373046876,20.947329714156595
eval_gen_FM1.pt,48,La2Ce3ScCu2(PdS3)4,24,4.668717384338379,4.704237937927246,8.468815803527832,101.54847717285156,104.09088134765625,90.12653350830077,15.812360259754824
eval_gen_FM1.pt,49,Ba2PrEuAlNi3Sn2(Se4S3)2,24,4.780652046203613,5.6801486015319815,9.421609878540039,100.77348327636719,104.18264770507812,89.80470275878906,12.49735656861777
eval_gen_FM1.pt,50,Ca2Ce3Cu3Si5Ni(Pd2O)3,23,5.79927396774292,6.382348537445068,7.7193427085876465,100.56957244873047,106.6092758178711,89.90583038330078,9.74225185306314
eval_gen_FM1.pt,51,LiCa3Pd4(PtI3)2,16,5.086772918701172,5.044342994689941,5.722169399261475,100.87620544433594,104.22271728515625,91.75439453125,20.316199587511857
eval_gen_FM1.pt,52,Cs3KCo2SnHgMo4(PBr2)4,24,3.3930406570434575,5.5936665534973145,6.42331600189209,94.77194213867189,90.50349426269531,90.18275451660158,27.636632517706936
eval_gen_FM1.pt,53,CsNbCu3Te8P(Pt2Se)2,20,4.315019607543945,4.463925361633301,9.237396240234375,91.01861572265625,92.4460678100586,90.82673645019531,22.485199188672794
eval_gen_FM1.pt,54,NaCaCeSnGe3AsPPd7F6,22,5.0890655517578125,5.303377151489258,5.940998077392578,111.92730712890626,92.05567169189455,89.80149841308594,16.80923805798623
eval_gen_FM1.pt,55,BaYb2CrCu4PbS10,19,4.436610221862793,4.448945999145508,8.896392822265625,99.96023559570312,101.22007751464844,94.36721038818358,12.979454998201719
eval_gen_FM1.pt,56,DyY5Ni3Sn2P6Se5,22,4.124283790588379,5.852797985076903,11.277783393859863,99.81185913085939,101.7748336791992,90.14842224121094,10.13241950336593
eval_gen_FM1.pt,57,Na3SmAgHgTe4(SeO3)2,18,5.85455846786499,7.076143264770507,7.323127746582031,110.29695129394531,88.57400512695312,88.32887268066406,7.548955186550146
eval_gen_FM1.pt,58,ErUNb9As4Ir13,28,7.87400484085083,8.160041809082031,7.368504524230957,63.51809310913086,62.608169555664055,60.35040283203124,19.14556404104669
eval_gen_FM1.pt,59,CaTm2Cu4Ni4Sb2As2PPbSe5,22,4.6006598472595215,4.531351566314696,11.765397071838379,86.39067840576172,86.38268280029297,84.08446502685547,12.932688005688965
eval_gen_FM1.pt,60,Ca8La2In6Sn2(PPd2)3,27,4.612794876098633,4.973286151885986,8.504815101623535,100.78958892822267,100.03569030761717,90.25914001464845,19.86635841196346
eval_gen_FM1.pt,61,Ho4(GaPt)3,10,4.773150444030762,4.945472717285156,4.881832599639893,63.93090820312501,64.19373321533203,61.953758239746094,27.604233817972368
eval_gen_FM1.pt,62,LaCeCuNiAs2P2Pd,9,3.5280013084411626,3.739393711090088,5.593542098999023,108.3037109375,108.10665130615234,89.25332641601564,18.02051666783349
eval_gen_partial_FM1_001.pt,1,Y2CdIn2AsSe(ICl)2,11,3.4983239173889156,3.424223899841308,7.899467945098877,84.02668762207033,90.93142700195314,100.42456817626953,17.912323362005644
eval_gen_partial_FM1_002.pt,1,Y2CdIn2AsSe(ICl)2,11,3.4983239173889156,3.424223899841308,7.899467945098877,84.02668762207033,90.93142700195314,100.42456817626953,17.912323362005644
eval_gen_partial_FM1_002.pt,2,Ca2ScBi2AuSe2,8,4.1957197189331055,5.1814093589782715,5.545741081237793,96.11729431152344,77.90558624267578,79.79859924316406,12.997364397074707
eval_gen_partial_FM1_003.pt,1,Y2CdIn2AsSe(ICl)2,11,3.4983239173889156,3.424223899841308,7.899467945098877,84.02668762207033,90.93142700195314,100.42456817626953,17.912323362005644
eval_gen_partial_FM1_003.pt,2,Ca2ScBi2AuSe2,8,4.1957197189331055,5.1814093589782715,5.545741081237793,96.11729431152344,77.90558624267578,79.79859924316406,12.997364397074707
eval_gen_partial_FM1_003.pt,3,YbPmTa2GePt(SeBr)2,10,4.135356426239014,5.485744476318359,7.539834976196289,90.92151641845705,89.8045425415039,88.97415924072266,12.288280740305696
eval_gen_partial_FM1_004.pt,1,Y2CdIn2AsSe(ICl)2,11,3.4983239173889156,3.424223899841308,7.899467945098877,84.02668762207033,90.93142700195314,100.42456817626953,17.912323362005644
eval_gen_partial_FM1_004.pt,2,Ca2ScBi2AuSe2,8,4.1957197189331055,5.1814093589782715,5.545741081237793,96.11729431152344,77.90558624267578,79.79859924316406,12.997364397074707