source_pt,idx,formula,n_atom,a,b,c,alpha,beta,gamma,density
eval_gen_FM0.pt,46,Li2Ac(TiC)2,7,4.299333572387695,4.341991424560547,4.829563617706299,90.35710906982422,88.81329345703124,90.37685394287111,6.64404391655942
eval_gen_FM0.pt,47,Li2Mg4ReHg2Rh4Pb3,16,4.683404445648193,5.6900763511657715,6.236888885498047,117.39012908935547,94.07009887695314,90.28873443603514,19.55265130501185
eval_gen_FM0.pt,48,ErAlFeSiAg,10,4.198659420013428,4.21568489074707,4.9067559242248535,112.65008544921875,110.12305450439453,101.720703125,18.477588755411873
eval_gen_FM0.pt,49,Li2Ca2Y2Al2Tl2NiP4Ru,16,4.565332412719727,6.123401641845703,6.221168041229248,118.5750732421875,90.63864135742186,89.32585144042969,11.071611110960532
eval_gen_FM0.pt,50,Sr2Tl6In4GaCu2AgRh2,18,6.560637474060059,6.765268802642823,7.053553581237793,84.42926025390626,71.43194580078126,70.89763641357422,14.041892209995687
eval_gen_FM0.pt,51,KRbTm4Ni4PdCl5,16,5.366957664489746,6.342867374420167,6.424952507019043,110.78926086425781,87.15422821044922,88.0164566040039,10.739562876351615
eval_gen_FM0.pt,52,Mg5Cu2NiHg(Sb2Ir)4,21,6.226008892059325,7.900851726531982,7.987653732299805,100.7255859375,82.1419448852539,83.88712310791016,9.864408943214837
eval_gen_FM0.pt,53,LiCeThMgSiTe4,9,2.9104735851287837,2.991114377975464,2.8831989765167236,113.73895263671876,92.15878295898438,97.0760498046875,68.91338416359244
eval_gen_FM0.pt,54,RbYbTm2MgBeTlZn2CdCu2AgPPdS7,22,3.8949654102325444,5.752294540405274,7.338878631591797,106.19025421142578,94.59562683105469,106.63005828857422,18.657374553319684
eval_gen_FM0.pt,55,Mg2ZrAl(NiTe)2,8,4.646490097045898,4.567228317260742,6.860116958618164,87.9969711303711,86.41672515869139,91.67900848388672,6.17141066122151
eval_gen_FM0.pt,56,KCaAcTl2Cd2Ga(HgRh)2,12,5.3969621658325195,5.489823818206786,9.197141647338867,86.15022277832031,87.67597198486328,109.28028869628908,10.482674187607907
eval_gen_FM0.pt,57,Li5Tm(BeAl2)2,12,3.549773931503296,3.9125411510467534,4.968441009521484,101.92987060546875,105.82868957519531,91.95150756835939,8.46501711911165
eval_gen_FM0.pt,58,SrGa3NiHg,6,4.393118381500244,4.647496223449707,5.717923164367676,105.0502395629883,102.90141296386719,90.50577545166017,8.423823528005231
eval_gen_FM0.pt,59,LiDy2Mg2Cd2Ag2Hg,10,5.4912004470825195,5.773885250091552,5.576266765594482,71.52328491210938,62.80946350097656,61.0361442565918,12.424661855269717
eval_gen_FM0.pt,60,GdU2Ti3AlFe2Co2SnGe6,18,4.20477819442749,4.25368595123291,13.45699691772461,90.4323196411133,90.07234954833986,118.39868164062499,12.45507656916993
eval_gen_FM0.pt,61,NdYHf4V2(BiW)2,12,4.165315628051758,5.5037994384765625,6.398935794830322,100.40699768066408,103.24047851562499,90.88017272949219,21.7294297699727
eval_gen_FM0.pt,62,SrCeMg2AlNi2MoN3,11,4.566883563995361,4.837615013122559,5.192233562469482,97.97677612304688,88.29235076904297,88.95220184326173,8.172017987754511
eval_gen_partial_FM0_001.pt,1,YbPrAl2SiAgHg,7,5.083057880401611,5.758203029632569,5.595672607421875,81.0632553100586,65.18766021728516,63.64640808105469,8.787660437568475
eval_gen_partial_FM0_002.pt,1,YbPrAl2SiAgHg,7,5.083057880401611,5.758203029632569,5.595672607421875,81.0632553100586,65.18766021728516,63.64640808105469,8.787660437568475
eval_gen_partial_FM0_002.pt,2,Pm2Pr3DyZnIn7SiNi9,24,6.185816287994385,6.5042428970336905,9.688080787658691,83.50894927978516,89.65223693847656,86.8253936767578,9.87949030534932
eval_gen_partial_FM0_003.pt,1,YbPrAl2SiAgHg,7,5.083057880401611,5.758203029632569,5.595672607421875,81.0632553100586,65.18766021728516,63.64640808105469,8.787660437568475
eval_gen_partial_FM0_003.pt,2,Pm2Pr3DyZnIn7SiNi9,24,6.185816287994385,6.5042428970336905,9.688080787658691,83.50894927978516,89.65223693847656,86.8253936767578,9.87949030534932
eval_gen_partial_FM0_003.pt,3,Li4Ca2CeYMg2(CoSi)2,14,4.7675766944885245,5.732293605804444,6.279061794281006,91.67845153808594,89.80320739746095,89.8565139770508,5.417363690375734
eval_gen_partial_FM0_004.pt,1,YbPrAl2SiAgHg,7,5.083057880401611,5.758203029632569,5.595672607421875,81.0632553100586,65.18766021728516,63.64640808105469,8.787660437568475
eval_gen_partial_FM0_004.pt,2,Pm2Pr3DyZnIn7SiNi9,24,6.185816287994385,6.5042428970336905,9.688080787658691,83.50894927978516,89.65223693847656,86.8253936767578,9.87949030534932
eval_gen_partial_FM0_004.pt,3,Li4Ca2CeYMg2(CoSi)2,14,4.7675766944885245,5.732293605804444,6.279061794281006,91.67845153808594,89.80320739746095,89.8565139770508,5.417363690375734
eval_gen_partial_FM0_004.pt,4,LiMg4U4FeGe4(BiRh2)2,20,4.873562335968018,5.329921722412109,12.442011833190918,92.2762222290039,92.80673980712892,112.86616516113283,12.487898056425404
eval_gen_partial_FM0_005.pt,1,YbPrAl2SiAgHg,7,5.083057880401611,5.758203029632569,5.595672607421875,81.0632553100586,65.18766021728516,63.64640808105469,8.787660437568475
eval_gen_partial_FM0_005.pt,2,Pm2Pr3DyZnIn7SiNi9,24,6.185816287994385,6.5042428970336905,9.688080787658691,83.50894927978516,89.65223693847656,86.8253936767578,9.87949030534932
eval_gen_partial_FM0_005.pt,3,Li4Ca2CeYMg2(CoSi)2,14,4.7675766944885245,5.732293605804444,6.279061794281006,91.67845153808594,89.80320739746095,89.8565139770508,5.417363690375734
eval_gen_partial_FM0_005.pt,4,LiMg4U4FeGe4(BiRh2)2,20,4.873562335968018,5.329921722412109,12.442011833190918,92.2762222290039,92.80673980712892,112.86616516113283,12.487898056425404
eval_gen_partial_FM0_005.pt,5,Ac2Fe(SnI)2,14,5.035730361938477,5.047622203826903,9.932783126831055,87.40946197509766,88.78437805175781,104.77601623535156,13.64028819988244
eval_gen_partial_FM0_006.pt,1,YbPrAl2SiAgHg,7,5.083057880401611,5.758203029632569,5.595672607421875,81.0632553100586,65.18766021728516,63.64640808105469,8.787660437568475
eval_gen_partial_FM0_006.pt,2,Pm2Pr3DyZnIn7SiNi9,24,6.185816287994385,6.5042428970336905,9.688080787658691,83.50894927978516,89.65223693847656,86.8253936767578,9.87949030534932
eval_gen_partial_FM0_006.pt,3,Li4Ca2CeYMg2(CoSi)2,14,4.7675766944885245,5.732293605804444,6.279061794281006,91.67845153808594,89.80320739746095,89.8565139770508,5.417363690375734
eval_gen_partial_FM0_006.pt,4,LiMg4U4FeGe4(BiRh2)2,20,4.873562335968018,5.329921722412109,12.442011833190918,92.2762222290039,92.80673980712892,112.86616516113283,12.487898056425404
eval_gen_partial_FM0_006.pt,5,Ac2Fe(SnI)2,14,5.035730361938477,5.047622203826903,9.932783126831055,87.40946197509766,88.78437805175781,104.77601623535156,13.64028819988244
eval_gen_partial_FM0_006.pt,6,La4GdSiGeRu2C,10,4.797464370727539,4.914000034332275,5.32387113571167,76.69999694824219,80.02574157714844,83.56051635742188,14.227291310716264
eval_gen_partial_FM0_007.pt,1,YbPrAl2SiAgHg,7,5.083057880401611,5.758203029632569,5.595672607421875,81.0632553100586,65.18766021728516,63.64640808105469,8.787660437568475
eval_gen_partial_FM0_007.pt,2,Pm2Pr3DyZnIn7SiNi9,24,6.185816287994385,6.5042428970336905,9.688080787658691,83.50894927978516,89.65223693847656,86.8253936767578,9.87949030534932
eval_gen_partial_FM0_007.pt,3,Li4Ca2CeYMg2(CoSi)2,14,4.7675766944885245,5.732293605804444,6.279061794281006,91.67845153808594,89.80320739746095,89.8565139770508,5.417363690375734
eval_gen_partial_FM0_007.pt,4,LiMg4U4FeGe4(BiRh2)2,20,4.873562335968018,5.329921722412109,12.442011833190918,92.2762222290039,92.80673980712892,112.86616516113283,12.487898056425404
eval_gen_partial_FM0_007.pt,5,Ac2Fe(SnI)2,14,5.035730361938477,5.047622203826903,9.932783126831055,87.40946197509766,88.78437805175781,104.77601623535156,13.64028819988244
eval_gen_partial_FM0_007.pt,6,La4GdSiGeRu2C,10,4.797464370727539,4.914000034332275,5.32387113571167,76.69999694824219,80.02574157714844,83.56051635742188,14.227291310716264
eval_gen_partial_FM0_007.pt,7,Er3Mg(TlSb)2,8,3.7863261699676514,4.0088067054748535,4.51077127456665,104.4453125,101.81663513183595,90.67835998535156,30.21755186783935
eval_gen_partial_FM0_008.pt,1,YbPrAl2SiAgHg,7,5.083057880401611,5.758203029632569,5.595672607421875,81.0632553100586,65.18766021728516,63.64640808105469,8.787660437568475
eval_gen_partial_FM0_008.pt,2,Pm2Pr3DyZnIn7SiNi9,24,6.185816287994385,6.5042428970336905,9.688080787658691,83.50894927978516,89.65223693847656,86.8253936767578,9.87949030534932
eval_gen_partial_FM0_008.pt,3,Li4Ca2CeYMg2(CoSi)2,14,4.7675766944885245,5.732293605804444,6.279061794281006,91.67845153808594,89.80320739746095,89.8565139770508,5.417363690375734
eval_gen_partial_FM0_008.pt,4,LiMg4U4FeGe4(BiRh2)2,20,4.873562335968018,5.329921722412109,12.442011833190918,92.2762222290039,92.80673980712892,112.86616516113283,12.487898056425404
eval_gen_partial_FM0_008.pt,5,Ac2Fe(SnI)2,14,5.035730361938477,5.047622203826903,9.932783126831055,87.40946197509766,88.78437805175781,104.77601623535156,13.64028819988244
eval_gen_partial_FM0_008.pt,6,La4GdSiGeRu2C,10,4.797464370727539,4.914000034332275,5.32387113571167,76.69999694824219,80.02574157714844,83.56051635742188,14.227291310716264
eval_gen_partial_FM0_008.pt,7,Er3Mg(TlSb)2,8,3.7863261699676514,4.0088067054748535,4.51077127456665,104.4453125,101.81663513183595,90.67835998535156,30.21755186783935
eval_gen_partial_FM0_008.pt,8,RbAlCuCl2,10,3.0645427703857417,3.0593328475952144,4.646969318389893,88.62294006347656,87.56214141845705,90.34810638427734,18.843864267544014
eval_gen_partial_FM0_009.pt,1,YbPrAl2SiAgHg,7,5.083057880401611,5.758203029632569,5.595672607421875,81.0632553100586,65.18766021728516,63.64640808105469,8.787660437568475
eval_gen_partial_FM0_009.pt,2,Pm2Pr3DyZnIn7SiNi9,24,6.185816287994385,6.5042428970336905,9.688080787658691,83.50894927978516,89.65223693847656,86.8253936767578,9.87949030534932
eval_gen_partial_FM0_009.pt,3,Li4Ca2CeYMg2(CoSi)2,14,4.7675766944885245,5.732293605804444,6.279061794281006,91.67845153808594,89.80320739746095,89.8565139770508,5.417363690375734
eval_gen_partial_FM0_009.pt,4,LiMg4U4FeGe4(BiRh2)2,20,4.873562335968018,5.329921722412109,12.442011833190918,92.2762222290039,92.80673980712892,112.86616516113283,12.487898056425404
eval_gen_partial_FM0_009.pt,5,Ac2Fe(SnI)2,14,5.035730361938477,5.047622203826903,9.932783126831055,87.40946197509766,88.78437805175781,104.77601623535156,13.64028819988244
eval_gen_partial_FM0_009.pt,6,La4GdSiGeRu2C,10,4.797464370727539,4.914000034332275,5.32387113571167,76.69999694824219,80.02574157714844,83.56051635742188,14.227291310716264
eval_gen_partial_FM0_009.pt,7,Er3Mg(TlSb)2,8,3.7863261699676514,4.0088067054748535,4.51077127456665,104.4453125,101.81663513183595,90.67835998535156,30.21755186783935
eval_gen_partial_FM0_009.pt,8,RbAlCuCl2,10,3.0645427703857417,3.0593328475952144,4.646969318389893,88.62294006347656,87.56214141845705,90.34810638427734,18.843864267544014
eval_gen_partial_FM0_009.pt,9,Mg4TiGaHg4,10,5.372163772583008,5.945538520812987,6.209476470947266,106.59129333496094,83.30345916748048,86.18852233886719,8.996797556775377
eval_gen_partial_FM0_010.pt,1,YbPrAl2SiAgHg,7,5.083057880401611,5.758203029632569,5.595672607421875,81.0632553100586,65.18766021728516,63.64640808105469,8.787660437568475
eval_gen_partial_FM0_010.pt,2,Pm2Pr3DyZnIn7SiNi9,24,6.185816287994385,6.5042428970336905,9.688080787658691,83.50894927978516,89.65223693847656,86.8253936767578,9.87949030534932
eval_gen_partial_FM0_010.pt,3,Li4Ca2CeYMg2(CoSi)2,14,4.7675766944885245,5.732293605804444,6.279061794281006,91.67845153808594,89.80320739746095,89.8565139770508,5.417363690375734
eval_gen_partial_FM0_010.pt,4,LiMg4U4FeGe4(BiRh2)2,20,4.873562335968018,5.329921722412109,12.442011833190918,92.2762222290039,92.80673980712892,112.86616516113283,12.487898056425404
eval_gen_partial_FM0_010.pt,5,Ac2Fe(SnI)2,14,5.035730361938477,5.047622203826903,9.932783126831055,87.40946197509766,88.78437805175781,104.77601623535156,13.64028819988244
eval_gen_partial_FM0_010.pt,6,La4GdSiGeRu2C,10,4.797464370727539,4.914000034332275,5.32387113571167,76.69999694824219,80.02574157714844,83.56051635742188,14.227291310716264
eval_gen_partial_FM0_010.pt,7,Er3Mg(TlSb)2,8,3.7863261699676514,4.0088067054748535,4.51077127456665,104.4453125,101.81663513183595,90.67835998535156,30.21755186783935
eval_gen_partial_FM0_010.pt,8,RbAlCuCl2,10,3.0645427703857417,3.0593328475952144,4.646969318389893,88.62294006347656,87.56214141845705,90.34810638427734,18.843864267544014
eval_gen_partial_FM0_010.pt,9,Mg4TiGaHg4,10,5.372163772583008,5.945538520812987,6.209476470947266,106.59129333496094,83.30345916748048,86.18852233886719,8.996797556775377
eval_gen_partial_FM0_010.pt,10,Na2LiAc2CrInGa3Hg2,12,3.988337755203247,4.930315017700195,6.4177045822143555,105.09780883789062,99.94529724121094,111.59577178955078,19.72523320603703
eval_gen_partial_FM0_011.pt,1,YbPrAl2SiAgHg,7,5.083057880401611,5.758203029632569,5.595672607421875,81.0632553100586,65.18766021728516,63.64640808105469,8.787660437568475
eval_gen_partial_FM0_011.pt,2,Pm2Pr3DyZnIn7SiNi9,24,6.185816287994385,6.5042428970336905,9.688080787658691,83.50894927978516,89.65223693847656,86.8253936767578,9.87949030534932
eval_gen_partial_FM0_011.pt,3,Li4Ca2CeYMg2(CoSi)2,14,4.7675766944885245,5.732293605804444,6.279061794281006,91.67845153808594,89.80320739746095,89.8565139770508,5.417363690375734
eval_gen_partial_FM0_011.pt,4,LiMg4U4FeGe4(BiRh2)2,20,4.873562335968018,5.329921722412109,12.442011833190918,92.2762222290039,92.80673980712892,112.86616516113283,12.487898056425404
eval_gen_partial_FM0_011.pt,5,Ac2Fe(SnI)2,14,5.035730361938477,5.047622203826903,9.932783126831055,87.40946197509766,88.78437805175781,104.77601623535156,13.64028819988244
eval_gen_partial_FM0_011.pt,6,La4GdSiGeRu2C,10,4.797464370727539,4.914000034332275,5.32387113571167,76.69999694824219,80.02574157714844,83.56051635742188,14.227291310716264
eval_gen_partial_FM0_011.pt,7,Er3Mg(TlSb)2,8,3.7863261699676514,4.0088067054748535,4.51077127456665,104.4453125,101.81663513183595,90.67835998535156,30.21755186783935
eval_gen_partial_FM0_011.pt,8,RbAlCuCl2,10,3.0645427703857417,3.0593328475952144,4.646969318389893,88.62294006347656,87.56214141845705,90.34810638427734,18.843864267544014
eval_gen_partial_FM0_011.pt,9,Mg4TiGaHg4,10,5.372163772583008,5.945538520812987,6.209476470947266,106.59129333496094,83.30345916748048,86.18852233886719,8.996797556775377
eval_gen_partial_FM0_011.pt,10,Na2LiAc2CrInGa3Hg2,12,3.988337755203247,4.930315017700195,6.4177045822143555,105.09780883789062,99.94529724121094,111.59577178955078,19.72523320603703
eval_gen_partial_FM0_011.pt,11,CaPm2Mn(InPb)2,8,3.7419843673706055,3.946151494979859,7.767071723937988,87.46324920654298,89.96272277832031,96.69511413574219,15.01614391721909
eval_gen_partial_FM0_012.pt,1,YbPrAl2SiAgHg,7,5.083057880401611,5.758203029632569,5.595672607421875,81.0632553100586,65.18766021728516,63.64640808105469,8.787660437568475
eval_gen_partial_FM0_012.pt,2,Pm2Pr3DyZnIn7SiNi9,24,6.185816287994385,6.5042428970336905,9.688080787658691,83.50894927978516,89.65223693847656,86.8253936767578,9.87949030534932
eval_gen_partial_FM0_012.pt,3,Li4Ca2CeYMg2(CoSi)2,14,4.7675766944885245,5.732293605804444,6.279061794281006,91.67845153808594,89.80320739746095,89.8565139770508,5.417363690375734
eval_gen_partial_FM0_012.pt,4,LiMg4U4FeGe4(BiRh2)2,20,4.873562335968018,5.329921722412109,12.442011833190918,92.2762222290039,92.80673980712892,112.86616516113283,12.487898056425404
eval_gen_partial_FM0_012.pt,5,Ac2Fe(SnI)2,14,5.035730361938477,5.047622203826903,9.932783126831055,87.40946197509766,88.78437805175781,104.77601623535156,13.64028819988244
eval_gen_partial_FM0_012.pt,6,La4GdSiGeRu2C,10,4.797464370727539,4.914000034332275,5.32387113571167,76.69999694824219,80.02574157714844,83.56051635742188,14.227291310716264
eval_gen_partial_FM0_012.pt,7,Er3Mg(TlSb)2,8,3.7863261699676514,4.0088067054748535,4.51077127456665,104.4453125,101.81663513183595,90.67835998535156,30.21755186783935
eval_gen_partial_FM0_012.pt,8,RbAlCuCl2,10,3.0645427703857417,3.0593328475952144,4.646969318389893,88.62294006347656,87.56214141845705,90.34810638427734,18.843864267544014
eval_gen_partial_FM0_012.pt,9,Mg4TiGaHg4,10,5.372163772583008,5.945538520812987,6.209476470947266,106.59129333496094,83.30345916748048,86.18852233886719,8.996797556775377
eval_gen_partial_FM0_012.pt,10,Na2LiAc2CrInGa3Hg2,12,3.988337755203247,4.930315017700195,6.4177045822143555,105.09780883789062,99.94529724121094,111.59577178955078,19.72523320603703
eval_gen_partial_FM0_012.pt,11,CaPm2Mn(InPb)2,8,3.7419843673706055,3.946151494979859,7.767071723937988,87.46324920654298,89.96272277832031,96.69511413574219,15.01614391721909
eval_gen_partial_FM0_012.pt,12,Ba2Ce2InRh2C5,12,4.4621734619140625,5.4300432205200195,6.419530391693115,93.45990753173828,89.7244644165039,91.3048858642578,10.008735877878513
eval_gen_partial_FM0_013.pt,1,YbPrAl2SiAgHg,7,5.083057880401611,5.758203029632569,5.595672607421875,81.0632553100586,65.18766021728516,63.64640808105469,8.787660437568475
eval_gen_partial_FM0_013.pt,2,Pm2Pr3DyZnIn7SiNi9,24,6.185816287994385,6.5042428970336905,9.688080787658691,83.50894927978516,89.65223693847656,86.8253936767578,9.87949030534932
eval_gen_partial_FM0_013.pt,3,Li4Ca2CeYMg2(CoSi)2,14,4.7675766944885245,5.732293605804444,6.279061794281006,91.67845153808594,89.80320739746095,89.8565139770508,5.417363690375734
eval_gen_partial_FM0_013.pt,4,LiMg4U4FeGe4(BiRh2)2,20,4.873562335968018,5.329921722412109,12.442011833190918,92.2762222290039,92.80673980712892,112.86616516113283,12.487898056425404
eval_gen_partial_FM0_013.pt,5,Ac2Fe(SnI)2,14,5.035730361938477,5.047622203826903,9.932783126831055,87.40946197509766,88.78437805175781,104.77601623535156,13.64028819988244
eval_gen_partial_FM0_013.pt,6,La4GdSiGeRu2C,10,4.797464370727539,4.914000034332275,5.32387113571167,76.69999694824219,80.02574157714844,83.56051635742188,14.227291310716264
eval_gen_partial_FM0_013.pt,7,Er3Mg(TlSb)2,8,3.7863261699676514,4.0088067054748535,4.51077127456665,104.4453125,101.81663513183595,90.67835998535156,30.21755186783935
eval_gen_partial_FM0_013.pt,8,RbAlCuCl2,10,3.0645427703857417,3.0593328475952144,4.646969318389893,88.62294006347656,87.56214141845705,90.34810638427734,18.843864267544014
eval_gen_partial_FM0_013.pt,9,Mg4TiGaHg4,10,5.372163772583008,5.945538520812987,6.209476470947266,106.59129333496094,83.30345916748048,86.18852233886719,8.996797556775377
eval_gen_partial_FM0_013.pt,10,Na2LiAc2CrInGa3Hg2,12,3.988337755203247,4.930315017700195,6.4177045822143555,105.09780883789062,99.94529724121094,111.59577178955078,19.72523320603703
eval_gen_partial_FM0_013.pt,11,CaPm2Mn(InPb)2,8,3.7419843673706055,3.946151494979859,7.767071723937988,87.46324920654298,89.96272277832031,96.69511413574219,15.01614391721909
eval_gen_partial_FM0_013.pt,12,Ba2Ce2InRh2C5,12,4.4621734619140625,5.4300432205200195,6.419530391693115,93.45990753173828,89.7244644165039,91.3048858642578,10.008735877878513
eval_gen_partial_FM0_013.pt,13,Ho2Mg3Ni6AgSn4,16,5.092214107513428,5.102384567260741,5.032977104187012,73.35009765625,64.43031311035156,60.78188323974609,21.675779245583765
eval_gen_partial_FM0_014.pt,1,YbPrAl2SiAgHg,7,5.083057880401611,5.758203029632569,5.595672607421875,81.0632553100586,65.18766021728516,63.64640808105469,8.787660437568475
eval_gen_partial_FM0_014.pt,2,Pm2Pr3DyZnIn7SiNi9,24,6.185816287994385,6.5042428970336905,9.688080787658691,83.50894927978516,89.65223693847656,86.8253936767578,9.87949030534932
eval_gen_partial_FM0_014.pt,3,Li4Ca2CeYMg2(CoSi)2,14,4.7675766944885245,5.732293605804444,6.279061794281006,91.67845153808594,89.80320739746095,89.8565139770508,5.417363690375734
eval_gen_partial_FM0_014.pt,4,LiMg4U4FeGe4(BiRh2)2,20,4.873562335968018,5.329921722412109,12.442011833190918,92.2762222290039,92.80673980712892,112.86616516113283,12.487898056425404
eval_gen_partial_FM0_014.pt,5,Ac2Fe(SnI)2,14,5.035730361938477,5.047622203826903,9.932783126831055,87.40946197509766,88.78437805175781,104.77601623535156,13.64028819988244
eval_gen_partial_FM0_014.pt,6,La4GdSiGeRu2C,10,4.797464370727539,4.914000034332275,5.32387113571167,76.69999694824219,80.02574157714844,83.56051635742188,14.227291310716264
eval_gen_partial_FM0_014.pt,7,Er3Mg(TlSb)2,8,3.7863261699676514,4.0088067054748535,4.51077127456665,104.4453125,101.81663513183595,90.67835998535156,30.21755186783935