source_pt,idx,formula,n_atom,a,b,c,alpha,beta,gamma,density
eval_gen_FM2.pt,52,KNa3BeP2PtW(S3O4)2,23,6.2930192947387695,6.15410327911377,6.505272388458252,106.29681396484376,81.66722106933594,86.92683410644533,6.126188126719705
eval_gen_FM2.pt,53,K5Ag2Te2S(O2F3)2,20,6.358512878417969,6.329938411712647,6.16233491897583,68.62932586669922,66.41326141357422,66.07537841796876,7.218070998650306
eval_gen_FM2.pt,54,Li3CeCuNiS3OF3,26,5.414571762084961,5.570771217346191,5.768764495849609,61.65415954589844,62.5770263671875,62.46799850463867,11.63198125010676
eval_gen_FM2.pt,55,NaLi3Be3Nb2V3SiAsH3(NO3)4,33,5.974731922149658,6.032478332519531,6.11299467086792,119.60320281982423,89.08993530273438,88.2790756225586,6.625599049029387
eval_gen_FM2.pt,56,Rb2Li3Mg5Cu2NiPd(Cl3O5)2,30,6.265049934387208,6.729734420776366,7.223620891571045,114.35607147216798,102.0096435546875,104.42293548583986,6.458908659801818
eval_gen_FM2.pt,57,RbNa3NbNi3TePdO9F8,27,4.539470195770264,4.863248348236084,10.698643684387207,96.84941864013672,90.72435760498048,111.93194580078126,7.292073951906734
eval_gen_FM2.pt,58,BaSrLi2Ca2La2MnV2Co(SO)8,28,7.630546569824219,7.5641088485717765,7.593189239501953,112.36573791503908,102.82383728027344,100.06088256835938,5.25151158568026
eval_gen_FM2.pt,59,Mn2Bi2W3(O7F2)2,25,5.055205345153809,4.873663902282715,5.346480846405029,65.75167846679689,60.28285217285156,62.883426666259766,23.165326304219175
eval_gen_FM2.pt,60,Na2Cr4Cd2Cu2P2WSe2O17,32,5.379288673400879,6.068611145019531,7.9945268630981445,105.28289794921876,103.45822143554688,96.38808441162108,8.842874021716083
eval_gen_FM2.pt,61,K3BaFe2As3PO15F,26,6.138130664825439,6.358206272125243,6.981565475463867,110.52844238281251,100.71127319335939,105.39868164062501,6.252881034341123
eval_gen_FM2.pt,62,RbNaCaMg3ZnW4N3ClO13,28,4.20051908493042,4.471790313720703,9.307595252990723,100.93898773193361,102.76148986816406,89.05562591552734,12.975079071198035
eval_gen_partial_FM2_001.pt,1,Rb2Li2DyPaSn(Se3O2)2,17,4.530362129211426,4.7408623695373535,5.102669715881348,93.108642578125,87.43130493164064,89.19850158691406,18.758597916489876
eval_gen_partial_FM2_002.pt,1,Rb2Li2DyPaSn(Se3O2)2,17,4.530362129211426,4.7408623695373535,5.102669715881348,93.108642578125,87.43130493164064,89.19850158691406,18.758597916489876
eval_gen_partial_FM2_002.pt,2,Pr3(Pd5S7)2,27,3.953984498977661,7.086939334869385,7.306769847869873,111.69620513916016,89.21449279785156,90.34618377685547,16.898563694950397
eval_gen_partial_FM2_003.pt,1,Rb2Li2DyPaSn(Se3O2)2,17,4.530362129211426,4.7408623695373535,5.102669715881348,93.108642578125,87.43130493164064,89.19850158691406,18.758597916489876
eval_gen_partial_FM2_003.pt,2,Pr3(Pd5S7)2,27,3.953984498977661,7.086939334869385,7.306769847869873,111.69620513916016,89.21449279785156,90.34618377685547,16.898563694950397
eval_gen_partial_FM2_003.pt,3,ErCr7PdRhWNO20,32,6.319524288177491,6.373358249664306,7.717833518981934,85.96131134033203,71.75605010986328,77.6430892944336,7.245997209872311
eval_gen_partial_FM2_004.pt,1,Rb2Li2DyPaSn(Se3O2)2,17,4.530362129211426,4.7408623695373535,5.102669715881348,93.108642578125,87.43130493164064,89.19850158691406,18.758597916489876
eval_gen_partial_FM2_004.pt,2,Pr3(Pd5S7)2,27,3.953984498977661,7.086939334869385,7.306769847869873,111.69620513916016,89.21449279785156,90.34618377685547,16.898563694950397
eval_gen_partial_FM2_004.pt,3,ErCr7PdRhWNO20,32,6.319524288177491,6.373358249664306,7.717833518981934,85.96131134033203,71.75605010986328,77.6430892944336,7.245997209872311
eval_gen_partial_FM2_004.pt,4,Sr4VCu6Ni3Cl4(O5F)2,30,5.948472023010254,6.800331592559814,7.51579475402832,110.87286376953125,97.42347717285156,89.92451477050781,7.663884568164523
eval_gen_partial_FM2_005.pt,1,Rb2Li2DyPaSn(Se3O2)2,17,4.530362129211426,4.7408623695373535,5.102669715881348,93.108642578125,87.43130493164064,89.19850158691406,18.758597916489876
eval_gen_partial_FM2_005.pt,2,Pr3(Pd5S7)2,27,3.953984498977661,7.086939334869385,7.306769847869873,111.69620513916016,89.21449279785156,90.34618377685547,16.898563694950397
eval_gen_partial_FM2_005.pt,3,ErCr7PdRhWNO20,32,6.319524288177491,6.373358249664306,7.717833518981934,85.96131134033203,71.75605010986328,77.6430892944336,7.245997209872311
eval_gen_partial_FM2_005.pt,4,Sr4VCu6Ni3Cl4(O5F)2,30,5.948472023010254,6.800331592559814,7.51579475402832,110.87286376953125,97.42347717285156,89.92451477050781,7.663884568164523
eval_gen_partial_FM2_005.pt,5,CsRb2CuSb2AsWCl7O5,20,6.870253086090087,6.8066182136535645,6.94921350479126,69.53903198242188,68.68236541748048,71.68602752685545,7.179739831576706
eval_gen_partial_FM2_006.pt,1,Rb2Li2DyPaSn(Se3O2)2,17,4.530362129211426,4.7408623695373535,5.102669715881348,93.108642578125,87.43130493164064,89.19850158691406,18.758597916489876
eval_gen_partial_FM2_006.pt,2,Pr3(Pd5S7)2,27,3.953984498977661,7.086939334869385,7.306769847869873,111.69620513916016,89.21449279785156,90.34618377685547,16.898563694950397
eval_gen_partial_FM2_006.pt,3,ErCr7PdRhWNO20,32,6.319524288177491,6.373358249664306,7.717833518981934,85.96131134033203,71.75605010986328,77.6430892944336,7.245997209872311
eval_gen_partial_FM2_006.pt,4,Sr4VCu6Ni3Cl4(O5F)2,30,5.948472023010254,6.800331592559814,7.51579475402832,110.87286376953125,97.42347717285156,89.92451477050781,7.663884568164523
eval_gen_partial_FM2_006.pt,5,CsRb2CuSb2AsWCl7O5,20,6.870253086090087,6.8066182136535645,6.94921350479126,69.53903198242188,68.68236541748048,71.68602752685545,7.179739831576706
eval_gen_partial_FM2_006.pt,6,Cs2Li2Ta2AgAsHS6O5,20,5.577674865722655,7.185368061065674,7.739582061767578,113.42806243896484,89.49917602539062,90.6217727661133,6.405281679186982
eval_gen_partial_FM2_007.pt,1,Rb2Li2DyPaSn(Se3O2)2,17,4.530362129211426,4.7408623695373535,5.102669715881348,93.108642578125,87.43130493164064,89.19850158691406,18.758597916489876
eval_gen_partial_FM2_007.pt,2,Pr3(Pd5S7)2,27,3.953984498977661,7.086939334869385,7.306769847869873,111.69620513916016,89.21449279785156,90.34618377685547,16.898563694950397
eval_gen_partial_FM2_007.pt,3,ErCr7PdRhWNO20,32,6.319524288177491,6.373358249664306,7.717833518981934,85.96131134033203,71.75605010986328,77.6430892944336,7.245997209872311
eval_gen_partial_FM2_007.pt,4,Sr4VCu6Ni3Cl4(O5F)2,30,5.948472023010254,6.800331592559814,7.51579475402832,110.87286376953125,97.42347717285156,89.92451477050781,7.663884568164523
eval_gen_partial_FM2_007.pt,5,CsRb2CuSb2AsWCl7O5,20,6.870253086090087,6.8066182136535645,6.94921350479126,69.53903198242188,68.68236541748048,71.68602752685545,7.179739831576706
eval_gen_partial_FM2_007.pt,6,Cs2Li2Ta2AgAsHS6O5,20,5.577674865722655,7.185368061065674,7.739582061767578,113.42806243896484,89.49917602539062,90.6217727661133,6.405281679186982
eval_gen_partial_FM2_007.pt,7,Rb2SrLi2PrUZn2Ge3(Se3O5)2,28,4.999154090881348,6.944891929626464,8.265785217285156,108.69414520263673,96.90384674072266,101.82008361816406,10.40811372391518
eval_gen_partial_FM2_008.pt,1,Rb2Li2DyPaSn(Se3O2)2,17,4.530362129211426,4.7408623695373535,5.102669715881348,93.108642578125,87.43130493164064,89.19850158691406,18.758597916489876
eval_gen_partial_FM2_008.pt,2,Pr3(Pd5S7)2,27,3.953984498977661,7.086939334869385,7.306769847869873,111.69620513916016,89.21449279785156,90.34618377685547,16.898563694950397
eval_gen_partial_FM2_008.pt,3,ErCr7PdRhWNO20,32,6.319524288177491,6.373358249664306,7.717833518981934,85.96131134033203,71.75605010986328,77.6430892944336,7.245997209872311
eval_gen_partial_FM2_008.pt,4,Sr4VCu6Ni3Cl4(O5F)2,30,5.948472023010254,6.800331592559814,7.51579475402832,110.87286376953125,97.42347717285156,89.92451477050781,7.663884568164523
eval_gen_partial_FM2_008.pt,5,CsRb2CuSb2AsWCl7O5,20,6.870253086090087,6.8066182136535645,6.94921350479126,69.53903198242188,68.68236541748048,71.68602752685545,7.179739831576706
eval_gen_partial_FM2_008.pt,6,Cs2Li2Ta2AgAsHS6O5,20,5.577674865722655,7.185368061065674,7.739582061767578,113.42806243896484,89.49917602539062,90.6217727661133,6.405281679186982
eval_gen_partial_FM2_008.pt,7,Rb2SrLi2PrUZn2Ge3(Se3O5)2,28,4.999154090881348,6.944891929626464,8.265785217285156,108.69414520263673,96.90384674072266,101.82008361816406,10.40811372391518
eval_gen_partial_FM2_008.pt,8,Ba2Ca4LaIn2CoCuBi3(Cl3O7)2,34,6.265052795410156,6.334198951721191,10.351593017578125,90.30390930175781,89.33084869384766,93.45241546630861,8.057912541627752
eval_gen_partial_FM2_009.pt,1,Rb2Li2DyPaSn(Se3O2)2,17,4.530362129211426,4.7408623695373535,5.102669715881348,93.108642578125,87.43130493164064,89.19850158691406,18.758597916489876
eval_gen_partial_FM2_009.pt,2,Pr3(Pd5S7)2,27,3.953984498977661,7.086939334869385,7.306769847869873,111.69620513916016,89.21449279785156,90.34618377685547,16.898563694950397
eval_gen_partial_FM2_009.pt,3,ErCr7PdRhWNO20,32,6.319524288177491,6.373358249664306,7.717833518981934,85.96131134033203,71.75605010986328,77.6430892944336,7.245997209872311
eval_gen_partial_FM2_009.pt,4,Sr4VCu6Ni3Cl4(O5F)2,30,5.948472023010254,6.800331592559814,7.51579475402832,110.87286376953125,97.42347717285156,89.92451477050781,7.663884568164523
eval_gen_partial_FM2_009.pt,5,CsRb2CuSb2AsWCl7O5,20,6.870253086090087,6.8066182136535645,6.94921350479126,69.53903198242188,68.68236541748048,71.68602752685545,7.179739831576706
eval_gen_partial_FM2_009.pt,6,Cs2Li2Ta2AgAsHS6O5,20,5.577674865722655,7.185368061065674,7.739582061767578,113.42806243896484,89.49917602539062,90.6217727661133,6.405281679186982
eval_gen_partial_FM2_009.pt,7,Rb2SrLi2PrUZn2Ge3(Se3O5)2,28,4.999154090881348,6.944891929626464,8.265785217285156,108.69414520263673,96.90384674072266,101.82008361816406,10.40811372391518
eval_gen_partial_FM2_009.pt,8,Ba2Ca4LaIn2CoCuBi3(Cl3O7)2,34,6.265052795410156,6.334198951721191,10.351593017578125,90.30390930175781,89.33084869384766,93.45241546630861,8.057912541627752
eval_gen_partial_FM2_009.pt,9,Rb2Sr3CaCu3Bi2P3(ClO9)2,34,6.623962402343749,6.554992675781251,10.31008529663086,75.12031555175781,71.73770141601562,60.36322021484375,6.9481711733082685
eval_gen_partial_FM2_010.pt,1,Rb2Li2DyPaSn(Se3O2)2,17,4.530362129211426,4.7408623695373535,5.102669715881348,93.108642578125,87.43130493164064,89.19850158691406,18.758597916489876
eval_gen_partial_FM2_010.pt,2,Pr3(Pd5S7)2,27,3.953984498977661,7.086939334869385,7.306769847869873,111.69620513916016,89.21449279785156,90.34618377685547,16.898563694950397
eval_gen_partial_FM2_010.pt,3,ErCr7PdRhWNO20,32,6.319524288177491,6.373358249664306,7.717833518981934,85.96131134033203,71.75605010986328,77.6430892944336,7.245997209872311
eval_gen_partial_FM2_010.pt,4,Sr4VCu6Ni3Cl4(O5F)2,30,5.948472023010254,6.800331592559814,7.51579475402832,110.87286376953125,97.42347717285156,89.92451477050781,7.663884568164523
eval_gen_partial_FM2_010.pt,5,CsRb2CuSb2AsWCl7O5,20,6.870253086090087,6.8066182136535645,6.94921350479126,69.53903198242188,68.68236541748048,71.68602752685545,7.179739831576706
eval_gen_partial_FM2_010.pt,6,Cs2Li2Ta2AgAsHS6O5,20,5.577674865722655,7.185368061065674,7.739582061767578,113.42806243896484,89.49917602539062,90.6217727661133,6.405281679186982
eval_gen_partial_FM2_010.pt,7,Rb2SrLi2PrUZn2Ge3(Se3O5)2,28,4.999154090881348,6.944891929626464,8.265785217285156,108.69414520263673,96.90384674072266,101.82008361816406,10.40811372391518
eval_gen_partial_FM2_010.pt,8,Ba2Ca4LaIn2CoCuBi3(Cl3O7)2,34,6.265052795410156,6.334198951721191,10.351593017578125,90.30390930175781,89.33084869384766,93.45241546630861,8.057912541627752
eval_gen_partial_FM2_010.pt,9,Rb2Sr3CaCu3Bi2P3(ClO9)2,34,6.623962402343749,6.554992675781251,10.31008529663086,75.12031555175781,71.73770141601562,60.36322021484375,6.9481711733082685
eval_gen_partial_FM2_010.pt,10,KCa2PrCr2CuAgPbSClO9,20,4.279730796813965,5.914397716522216,8.233891487121582,71.39102172851562,75.50531005859375,70.26716613769531,8.634022608824363
eval_gen_partial_FM2_011.pt,1,Rb2Li2DyPaSn(Se3O2)2,17,4.530362129211426,4.7408623695373535,5.102669715881348,93.108642578125,87.43130493164064,89.19850158691406,18.758597916489876
eval_gen_partial_FM2_011.pt,2,Pr3(Pd5S7)2,27,3.953984498977661,7.086939334869385,7.306769847869873,111.69620513916016,89.21449279785156,90.34618377685547,16.898563694950397
eval_gen_partial_FM2_011.pt,3,ErCr7PdRhWNO20,32,6.319524288177491,6.373358249664306,7.717833518981934,85.96131134033203,71.75605010986328,77.6430892944336,7.245997209872311
eval_gen_partial_FM2_011.pt,4,Sr4VCu6Ni3Cl4(O5F)2,30,5.948472023010254,6.800331592559814,7.51579475402832,110.87286376953125,97.42347717285156,89.92451477050781,7.663884568164523
eval_gen_partial_FM2_011.pt,5,CsRb2CuSb2AsWCl7O5,20,6.870253086090087,6.8066182136535645,6.94921350479126,69.53903198242188,68.68236541748048,71.68602752685545,7.179739831576706
eval_gen_partial_FM2_011.pt,6,Cs2Li2Ta2AgAsHS6O5,20,5.577674865722655,7.185368061065674,7.739582061767578,113.42806243896484,89.49917602539062,90.6217727661133,6.405281679186982
eval_gen_partial_FM2_011.pt,7,Rb2SrLi2PrUZn2Ge3(Se3O5)2,28,4.999154090881348,6.944891929626464,8.265785217285156,108.69414520263673,96.90384674072266,101.82008361816406,10.40811372391518
eval_gen_partial_FM2_011.pt,8,Ba2Ca4LaIn2CoCuBi3(Cl3O7)2,34,6.265052795410156,6.334198951721191,10.351593017578125,90.30390930175781,89.33084869384766,93.45241546630861,8.057912541627752
eval_gen_partial_FM2_011.pt,9,Rb2Sr3CaCu3Bi2P3(ClO9)2,34,6.623962402343749,6.554992675781251,10.31008529663086,75.12031555175781,71.73770141601562,60.36322021484375,6.9481711733082685
eval_gen_partial_FM2_011.pt,10,KCa2PrCr2CuAgPbSClO9,20,4.279730796813965,5.914397716522216,8.233891487121582,71.39102172851562,75.50531005859375,70.26716613769531,8.634022608824363
eval_gen_partial_FM2_011.pt,11,CsRb2SrNpSiP2HNO12,22,5.560640335083008,5.612064838409424,5.906201362609863,87.5500717163086,92.3997802734375,89.26977539062499,8.354004978477308
eval_gen_partial_FM2_012.pt,1,Rb2Li2DyPaSn(Se3O2)2,17,4.530362129211426,4.7408623695373535,5.102669715881348,93.108642578125,87.43130493164064,89.19850158691406,18.758597916489876
eval_gen_partial_FM2_012.pt,2,Pr3(Pd5S7)2,27,3.953984498977661,7.086939334869385,7.306769847869873,111.69620513916016,89.21449279785156,90.34618377685547,16.898563694950397
eval_gen_partial_FM2_012.pt,3,ErCr7PdRhWNO20,32,6.319524288177491,6.373358249664306,7.717833518981934,85.96131134033203,71.75605010986328,77.6430892944336,7.245997209872311
eval_gen_partial_FM2_012.pt,4,Sr4VCu6Ni3Cl4(O5F)2,30,5.948472023010254,6.800331592559814,7.51579475402832,110.87286376953125,97.42347717285156,89.92451477050781,7.663884568164523
eval_gen_partial_FM2_012.pt,5,CsRb2CuSb2AsWCl7O5,20,6.870253086090087,6.8066182136535645,6.94921350479126,69.53903198242188,68.68236541748048,71.68602752685545,7.179739831576706
eval_gen_partial_FM2_012.pt,6,Cs2Li2Ta2AgAsHS6O5,20,5.577674865722655,7.185368061065674,7.739582061767578,113.42806243896484,89.49917602539062,90.6217727661133,6.405281679186982
eval_gen_partial_FM2_012.pt,7,Rb2SrLi2PrUZn2Ge3(Se3O5)2,28,4.999154090881348,6.944891929626464,8.265785217285156,108.69414520263673,96.90384674072266,101.82008361816406,10.40811372391518
eval_gen_partial_FM2_012.pt,8,Ba2Ca4LaIn2CoCuBi3(Cl3O7)2,34,6.265052795410156,6.334198951721191,10.351593017578125,90.30390930175781,89.33084869384766,93.45241546630861,8.057912541627752
eval_gen_partial_FM2_012.pt,9,Rb2Sr3CaCu3Bi2P3(ClO9)2,34,6.623962402343749,6.554992675781251,10.31008529663086,75.12031555175781,71.73770141601562,60.36322021484375,6.9481711733082685
eval_gen_partial_FM2_012.pt,10,KCa2PrCr2CuAgPbSClO9,20,4.279730796813965,5.914397716522216,8.233891487121582,71.39102172851562,75.50531005859375,70.26716613769531,8.634022608824363
eval_gen_partial_FM2_012.pt,11,CsRb2SrNpSiP2HNO12,22,5.560640335083008,5.612064838409424,5.906201362609863,87.5500717163086,92.3997802734375,89.26977539062499,8.354004978477308
eval_gen_partial_FM2_012.pt,12,BaLaFeCoAg2Bi2P2O13,23,3.892925024032593,4.447167873382569,7.720792770385742,88.48188781738283,91.69122314453125,90.541748046875,16.09671496128909
eval_gen_partial_FM2_013.pt,1,Rb2Li2DyPaSn(Se3O2)2,17,4.530362129211426,4.7408623695373535,5.102669715881348,93.108642578125,87.43130493164064,89.19850158691406,18.758597916489876
eval_gen_partial_FM2_013.pt,2,Pr3(Pd5S7)2,27,3.953984498977661,7.086939334869385,7.306769847869873,111.69620513916016,89.21449279785156,90.34618377685547,16.898563694950397
eval_gen_partial_FM2_013.pt,3,ErCr7PdRhWNO20,32,6.319524288177491,6.373358249664306,7.717833518981934,85.96131134033203,71.75605010986328,77.6430892944336,7.245997209872311
eval_gen_partial_FM2_013.pt,4,Sr4VCu6Ni3Cl4(O5F)2,30,5.948472023010254,6.800331592559814,7.51579475402832,110.87286376953125,97.42347717285156,89.92451477050781,7.663884568164523
eval_gen_partial_FM2_013.pt,5,CsRb2CuSb2AsWCl7O5,20,6.870253086090087,6.8066182136535645,6.94921350479126,69.53903198242188,68.68236541748048,71.68602752685545,7.179739831576706
eval_gen_partial_FM2_013.pt,6,Cs2Li2Ta2AgAsHS6O5,20,5.577674865722655,7.185368061065674,7.739582061767578,113.42806243896484,89.49917602539062,90.6217727661133,6.405281679186982
eval_gen_partial_FM2_013.pt,7,Rb2SrLi2PrUZn2Ge3(Se3O5)2,28,4.999154090881348,6.944891929626464,8.265785217285156,108.69414520263673,96.90384674072266,101.82008361816406,10.40811372391518
eval_gen_partial_FM2_013.pt,8,Ba2Ca4LaIn2CoCuBi3(Cl3O7)2,34,6.265052795410156,6.334198951721191,10.351593017578125,90.30390930175781,89.33084869384766,93.45241546630861,8.057912541627752
eval_gen_partial_FM2_013.pt,9,Rb2Sr3CaCu3Bi2P3(ClO9)2,34,6.623962402343749,6.554992675781251,10.31008529663086,75.12031555175781,71.73770141601562,60.36322021484375,6.9481711733082685
eval_gen_partial_FM2_013.pt,10,KCa2PrCr2CuAgPbSClO9,20,4.279730796813965,5.914397716522216,8.233891487121582,71.39102172851562,75.50531005859375,70.26716613769531,8.634022608824363
eval_gen_partial_FM2_013.pt,11,CsRb2SrNpSiP2HNO12,22,5.560640335083008,5.612064838409424,5.906201362609863,87.5500717163086,92.3997802734375,89.26977539062499,8.354004978477308
eval_gen_partial_FM2_013.pt,12,BaLaFeCoAg2Bi2P2O13,23,3.892925024032593,4.447167873382569,7.720792770385742,88.48188781738283,91.69122314453125,90.541748046875,16.09671496128909
eval_gen_partial_FM2_013.pt,13,KSrLiLaCuAg3Se5S2O7,22,4.219527244567871,4.8077383041381845,9.523665428161621,92.4129104614258,92.06858062744142,99.60514831542969,10.747437133068255
eval_gen_partial_FM2_014.pt,1,Rb2Li2DyPaSn(Se3O2)2,17,4.530362129211426,4.7408623695373535,5.102669715881348,93.108642578125,87.43130493164064,89.19850158691406,18.758597916489876
eval_gen_partial_FM2_014.pt,2,Pr3(Pd5S7)2,27,3.953984498977661,7.086939334869385,7.306769847869873,111.69620513916016,89.21449279785156,90.34618377685547,16.898563694950397
eval_gen_partial_FM2_014.pt,3,ErCr7PdRhWNO20,32,6.319524288177491,6.373358249664306,7.717833518981934,85.96131134033203,71.75605010986328,77.6430892944336,7.245997209872311
eval_gen_partial_FM2_014.pt,4,Sr4VCu6Ni3Cl4(O5F)2,30,5.948472023010254,6.800331592559814,7.51579475402832,110.87286376953125,97.42347717285156,89.92451477050781,7.663884568164523
eval_gen_partial_FM2_014.pt,5,CsRb2CuSb2AsWCl7O5,20,6.870253086090087,6.8066182136535645,6.94921350479126,69.53903198242188,68.68236541748048,71.68602752685545,7.179739831576706
eval_gen_partial_FM2_014.pt,6,Cs2Li2Ta2AgAsHS6O5,20,5.577674865722655,7.185368061065674,7.739582061767578,113.42806243896484,89.49917602539062,90.6217727661133,6.405281679186982
eval_gen_partial_FM2_014.pt,7,Rb2SrLi2PrUZn2Ge3(Se3O5)2,28,4.999154090881348,6.944891929626464,8.265785217285156,108.69414520263673,96.90384674072266,101.82008361816406,10.40811372391518
eval_gen_partial_FM2_014.pt,8,Ba2Ca4LaIn2CoCuBi3(Cl3O7)2,34,6.265052795410156,6.334198951721191,10.351593017578125,90.30390930175781,89.33084869384766,93.45241546630861,8.057912541627752
eval_gen_partial_FM2_014.pt,9,Rb2Sr3CaCu3Bi2P3(ClO9)2,34,6.623962402343749,6.554992675781251,10.31008529663086,75.12031555175781,71.73770141601562,60.36322021484375,6.9481711733082685