source_pt,idx,formula,n_atom,a,b,c,alpha,beta,gamma,density
eval_gen_partial_FM0_021.pt,3,Li4Ca2CeYMg2(CoSi)2,14,4.7675766944885245,5.732293605804444,6.279061794281006,91.67845153808594,89.80320739746095,89.8565139770508,5.417363690375734
eval_gen_partial_FM0_021.pt,4,LiMg4U4FeGe4(BiRh2)2,20,4.873562335968018,5.329921722412109,12.442011833190918,92.2762222290039,92.80673980712892,112.86616516113283,12.487898056425404
eval_gen_partial_FM0_021.pt,5,Ac2Fe(SnI)2,14,5.035730361938477,5.047622203826903,9.932783126831055,87.40946197509766,88.78437805175781,104.77601623535156,13.64028819988244
eval_gen_partial_FM0_021.pt,6,La4GdSiGeRu2C,10,4.797464370727539,4.914000034332275,5.32387113571167,76.69999694824219,80.02574157714844,83.56051635742188,14.227291310716264
eval_gen_partial_FM0_021.pt,7,Er3Mg(TlSb)2,8,3.7863261699676514,4.0088067054748535,4.51077127456665,104.4453125,101.81663513183595,90.67835998535156,30.21755186783935
eval_gen_partial_FM0_021.pt,8,RbAlCuCl2,10,3.0645427703857417,3.0593328475952144,4.646969318389893,88.62294006347656,87.56214141845705,90.34810638427734,18.843864267544014
eval_gen_partial_FM0_021.pt,9,Mg4TiGaHg4,10,5.372163772583008,5.945538520812987,6.209476470947266,106.59129333496094,83.30345916748048,86.18852233886719,8.996797556775377
eval_gen_partial_FM0_021.pt,10,Na2LiAc2CrInGa3Hg2,12,3.988337755203247,4.930315017700195,6.4177045822143555,105.09780883789062,99.94529724121094,111.59577178955078,19.72523320603703
eval_gen_partial_FM0_021.pt,11,CaPm2Mn(InPb)2,8,3.7419843673706055,3.946151494979859,7.767071723937988,87.46324920654298,89.96272277832031,96.69511413574219,15.01614391721909
eval_gen_partial_FM0_021.pt,12,Ba2Ce2InRh2C5,12,4.4621734619140625,5.4300432205200195,6.419530391693115,93.45990753173828,89.7244644165039,91.3048858642578,10.008735877878513
eval_gen_partial_FM0_021.pt,13,Ho2Mg3Ni6AgSn4,16,5.092214107513428,5.102384567260741,5.032977104187012,73.35009765625,64.43031311035156,60.78188323974609,21.675779245583765
eval_gen_partial_FM0_021.pt,14,SrEuNb4Al4C2S,13,4.385164737701416,5.572563171386719,5.950356483459473,119.17161560058594,98.23462677001953,89.29566955566408,10.26740673098411
eval_gen_partial_FM0_021.pt,15,Na2La4Mg2Tl2HgPbC,13,5.393702030181885,5.470394611358643,5.661681652069092,86.39635467529297,72.80776977539062,73.44759368896484,16.05654429963667
eval_gen_partial_FM0_021.pt,16,Pm2YMgGaCo4,9,5.123586654663086,5.130670070648193,5.114147663116455,60.36941146850585,60.38941955566405,59.95527648925783,12.313070657750085
eval_gen_partial_FM0_021.pt,17,Li3PmU2(InPd2)2,12,4.6404523849487305,6.073484420776367,6.105859756469727,117.72708129882814,88.1982650756836,90.16083526611328,14.149297574608417
eval_gen_partial_FM0_021.pt,18,KRb2NaNd2Mg4Ga2Ru2CI2N3,20,4.892510890960693,5.861314296722412,7.432653903961182,89.350830078125,87.45426177978516,89.17378234863281,9.89120077312403
eval_gen_partial_FM0_021.pt,19,SrLi2In3Sb2,8,4.5782856941223145,5.300032138824463,5.07004976272583,84.21174621582031,65.51838684082033,64.891357421875,11.339742278132471
eval_gen_partial_FM0_021.pt,20,Li2Pm2MgHg5N,11,3.908466100692749,6.310133457183839,6.749814033508301,98.85597229003906,87.81481170654297,91.03141784667969,13.59059144322791
eval_gen_partial_FM0_021.pt,21,Sr2LuMgIn3Ag2Hg,10,4.504609107971191,4.540021896362305,4.561747074127197,90.67763519287111,91.5120620727539,90.47198486328125,20.21659822653889
eval_gen_partial_FM0_022.pt,1,YbPrAl2SiAgHg,7,5.083057880401611,5.758203029632569,5.595672607421875,81.0632553100586,65.18766021728516,63.64640808105469,8.787660437568475
eval_gen_partial_FM0_022.pt,2,Pm2Pr3DyZnIn7SiNi9,24,6.185816287994385,6.5042428970336905,9.688080787658691,83.50894927978516,89.65223693847656,86.8253936767578,9.87949030534932
eval_gen_partial_FM0_022.pt,3,Li4Ca2CeYMg2(CoSi)2,14,4.7675766944885245,5.732293605804444,6.279061794281006,91.67845153808594,89.80320739746095,89.8565139770508,5.417363690375734
eval_gen_partial_FM0_022.pt,4,LiMg4U4FeGe4(BiRh2)2,20,4.873562335968018,5.329921722412109,12.442011833190918,92.2762222290039,92.80673980712892,112.86616516113283,12.487898056425404
eval_gen_partial_FM0_022.pt,5,Ac2Fe(SnI)2,14,5.035730361938477,5.047622203826903,9.932783126831055,87.40946197509766,88.78437805175781,104.77601623535156,13.64028819988244
eval_gen_partial_FM0_022.pt,6,La4GdSiGeRu2C,10,4.797464370727539,4.914000034332275,5.32387113571167,76.69999694824219,80.02574157714844,83.56051635742188,14.227291310716264
eval_gen_partial_FM0_022.pt,7,Er3Mg(TlSb)2,8,3.7863261699676514,4.0088067054748535,4.51077127456665,104.4453125,101.81663513183595,90.67835998535156,30.21755186783935
eval_gen_partial_FM0_022.pt,8,RbAlCuCl2,10,3.0645427703857417,3.0593328475952144,4.646969318389893,88.62294006347656,87.56214141845705,90.34810638427734,18.843864267544014
eval_gen_partial_FM0_022.pt,9,Mg4TiGaHg4,10,5.372163772583008,5.945538520812987,6.209476470947266,106.59129333496094,83.30345916748048,86.18852233886719,8.996797556775377
eval_gen_partial_FM0_022.pt,10,Na2LiAc2CrInGa3Hg2,12,3.988337755203247,4.930315017700195,6.4177045822143555,105.09780883789062,99.94529724121094,111.59577178955078,19.72523320603703
eval_gen_partial_FM0_022.pt,11,CaPm2Mn(InPb)2,8,3.7419843673706055,3.946151494979859,7.767071723937988,87.46324920654298,89.96272277832031,96.69511413574219,15.01614391721909
eval_gen_partial_FM0_022.pt,12,Ba2Ce2InRh2C5,12,4.4621734619140625,5.4300432205200195,6.419530391693115,93.45990753173828,89.7244644165039,91.3048858642578,10.008735877878513
eval_gen_partial_FM0_022.pt,13,Ho2Mg3Ni6AgSn4,16,5.092214107513428,5.102384567260741,5.032977104187012,73.35009765625,64.43031311035156,60.78188323974609,21.675779245583765
eval_gen_partial_FM0_022.pt,14,SrEuNb4Al4C2S,13,4.385164737701416,5.572563171386719,5.950356483459473,119.17161560058594,98.23462677001953,89.29566955566408,10.26740673098411
eval_gen_partial_FM0_022.pt,15,Na2La4Mg2Tl2HgPbC,13,5.393702030181885,5.470394611358643,5.661681652069092,86.39635467529297,72.80776977539062,73.44759368896484,16.05654429963667
eval_gen_partial_FM0_022.pt,16,Pm2YMgGaCo4,9,5.123586654663086,5.130670070648193,5.114147663116455,60.36941146850585,60.38941955566405,59.95527648925783,12.313070657750085
eval_gen_partial_FM0_022.pt,17,Li3PmU2(InPd2)2,12,4.6404523849487305,6.073484420776367,6.105859756469727,117.72708129882814,88.1982650756836,90.16083526611328,14.149297574608417
eval_gen_partial_FM0_022.pt,18,KRb2NaNd2Mg4Ga2Ru2CI2N3,20,4.892510890960693,5.861314296722412,7.432653903961182,89.350830078125,87.45426177978516,89.17378234863281,9.89120077312403
eval_gen_partial_FM0_022.pt,19,SrLi2In3Sb2,8,4.5782856941223145,5.300032138824463,5.07004976272583,84.21174621582031,65.51838684082033,64.891357421875,11.339742278132471
eval_gen_partial_FM0_022.pt,20,Li2Pm2MgHg5N,11,3.908466100692749,6.310133457183839,6.749814033508301,98.85597229003906,87.81481170654297,91.03141784667969,13.59059144322791
eval_gen_partial_FM0_022.pt,21,Sr2LuMgIn3Ag2Hg,10,4.504609107971191,4.540021896362305,4.561747074127197,90.67763519287111,91.5120620727539,90.47198486328125,20.21659822653889
eval_gen_partial_FM0_022.pt,22,Dy2Y5Th2MgAlTlInGaAgBi3Pd5Ru2PbW2,28,5.934303283691406,7.870456695556641,9.329452514648438,93.59458923339844,95.39607238769531,89.70339202880861,14.258938318289855
eval_gen_partial_FM0_023.pt,1,YbPrAl2SiAgHg,7,5.083057880401611,5.758203029632569,5.595672607421875,81.0632553100586,65.18766021728516,63.64640808105469,8.787660437568475
eval_gen_partial_FM0_023.pt,2,Pm2Pr3DyZnIn7SiNi9,24,6.185816287994385,6.5042428970336905,9.688080787658691,83.50894927978516,89.65223693847656,86.8253936767578,9.87949030534932
eval_gen_partial_FM0_023.pt,3,Li4Ca2CeYMg2(CoSi)2,14,4.7675766944885245,5.732293605804444,6.279061794281006,91.67845153808594,89.80320739746095,89.8565139770508,5.417363690375734
eval_gen_partial_FM0_023.pt,4,LiMg4U4FeGe4(BiRh2)2,20,4.873562335968018,5.329921722412109,12.442011833190918,92.2762222290039,92.80673980712892,112.86616516113283,12.487898056425404
eval_gen_partial_FM0_023.pt,5,Ac2Fe(SnI)2,14,5.035730361938477,5.047622203826903,9.932783126831055,87.40946197509766,88.78437805175781,104.77601623535156,13.64028819988244
eval_gen_partial_FM0_023.pt,6,La4GdSiGeRu2C,10,4.797464370727539,4.914000034332275,5.32387113571167,76.69999694824219,80.02574157714844,83.56051635742188,14.227291310716264
eval_gen_partial_FM0_023.pt,7,Er3Mg(TlSb)2,8,3.7863261699676514,4.0088067054748535,4.51077127456665,104.4453125,101.81663513183595,90.67835998535156,30.21755186783935
eval_gen_partial_FM0_023.pt,8,RbAlCuCl2,10,3.0645427703857417,3.0593328475952144,4.646969318389893,88.62294006347656,87.56214141845705,90.34810638427734,18.843864267544014
eval_gen_partial_FM0_023.pt,9,Mg4TiGaHg4,10,5.372163772583008,5.945538520812987,6.209476470947266,106.59129333496094,83.30345916748048,86.18852233886719,8.996797556775377
eval_gen_partial_FM0_023.pt,10,Na2LiAc2CrInGa3Hg2,12,3.988337755203247,4.930315017700195,6.4177045822143555,105.09780883789062,99.94529724121094,111.59577178955078,19.72523320603703
eval_gen_partial_FM0_023.pt,11,CaPm2Mn(InPb)2,8,3.7419843673706055,3.946151494979859,7.767071723937988,87.46324920654298,89.96272277832031,96.69511413574219,15.01614391721909
eval_gen_partial_FM0_023.pt,12,Ba2Ce2InRh2C5,12,4.4621734619140625,5.4300432205200195,6.419530391693115,93.45990753173828,89.7244644165039,91.3048858642578,10.008735877878513
eval_gen_partial_FM0_023.pt,13,Ho2Mg3Ni6AgSn4,16,5.092214107513428,5.102384567260741,5.032977104187012,73.35009765625,64.43031311035156,60.78188323974609,21.675779245583765
eval_gen_partial_FM0_023.pt,14,SrEuNb4Al4C2S,13,4.385164737701416,5.572563171386719,5.950356483459473,119.17161560058594,98.23462677001953,89.29566955566408,10.26740673098411
eval_gen_partial_FM0_023.pt,15,Na2La4Mg2Tl2HgPbC,13,5.393702030181885,5.470394611358643,5.661681652069092,86.39635467529297,72.80776977539062,73.44759368896484,16.05654429963667
eval_gen_partial_FM0_023.pt,16,Pm2YMgGaCo4,9,5.123586654663086,5.130670070648193,5.114147663116455,60.36941146850585,60.38941955566405,59.95527648925783,12.313070657750085
eval_gen_partial_FM0_023.pt,17,Li3PmU2(InPd2)2,12,4.6404523849487305,6.073484420776367,6.105859756469727,117.72708129882814,88.1982650756836,90.16083526611328,14.149297574608417
eval_gen_partial_FM0_023.pt,18,KRb2NaNd2Mg4Ga2Ru2CI2N3,20,4.892510890960693,5.861314296722412,7.432653903961182,89.350830078125,87.45426177978516,89.17378234863281,9.89120077312403
eval_gen_partial_FM0_023.pt,19,SrLi2In3Sb2,8,4.5782856941223145,5.300032138824463,5.07004976272583,84.21174621582031,65.51838684082033,64.891357421875,11.339742278132471
eval_gen_partial_FM0_023.pt,20,Li2Pm2MgHg5N,11,3.908466100692749,6.310133457183839,6.749814033508301,98.85597229003906,87.81481170654297,91.03141784667969,13.59059144322791
eval_gen_partial_FM0_023.pt,21,Sr2LuMgIn3Ag2Hg,10,4.504609107971191,4.540021896362305,4.561747074127197,90.67763519287111,91.5120620727539,90.47198486328125,20.21659822653889
eval_gen_partial_FM0_023.pt,22,Dy2Y5Th2MgAlTlInGaAgBi3Pd5Ru2PbW2,28,5.934303283691406,7.870456695556641,9.329452514648438,93.59458923339844,95.39607238769531,89.70339202880861,14.258938318289855
eval_gen_partial_FM0_023.pt,23,CaEu2(MgSi)2,7,3.910343647003174,4.448904514312745,8.07999038696289,90.28108215332033,91.15823364257811,89.17029571533203,5.303339322010754
eval_gen_partial_FM0_024.pt,1,YbPrAl2SiAgHg,7,5.083057880401611,5.758203029632569,5.595672607421875,81.0632553100586,65.18766021728516,63.64640808105469,8.787660437568475
eval_gen_partial_FM0_024.pt,2,Pm2Pr3DyZnIn7SiNi9,24,6.185816287994385,6.5042428970336905,9.688080787658691,83.50894927978516,89.65223693847656,86.8253936767578,9.87949030534932
eval_gen_partial_FM0_024.pt,3,Li4Ca2CeYMg2(CoSi)2,14,4.7675766944885245,5.732293605804444,6.279061794281006,91.67845153808594,89.80320739746095,89.8565139770508,5.417363690375734
eval_gen_partial_FM0_024.pt,4,LiMg4U4FeGe4(BiRh2)2,20,4.873562335968018,5.329921722412109,12.442011833190918,92.2762222290039,92.80673980712892,112.86616516113283,12.487898056425404
eval_gen_partial_FM0_024.pt,5,Ac2Fe(SnI)2,14,5.035730361938477,5.047622203826903,9.932783126831055,87.40946197509766,88.78437805175781,104.77601623535156,13.64028819988244
eval_gen_partial_FM0_024.pt,6,La4GdSiGeRu2C,10,4.797464370727539,4.914000034332275,5.32387113571167,76.69999694824219,80.02574157714844,83.56051635742188,14.227291310716264
eval_gen_partial_FM0_024.pt,7,Er3Mg(TlSb)2,8,3.7863261699676514,4.0088067054748535,4.51077127456665,104.4453125,101.81663513183595,90.67835998535156,30.21755186783935
eval_gen_partial_FM0_024.pt,8,RbAlCuCl2,10,3.0645427703857417,3.0593328475952144,4.646969318389893,88.62294006347656,87.56214141845705,90.34810638427734,18.843864267544014
eval_gen_partial_FM0_024.pt,9,Mg4TiGaHg4,10,5.372163772583008,5.945538520812987,6.209476470947266,106.59129333496094,83.30345916748048,86.18852233886719,8.996797556775377
eval_gen_partial_FM0_024.pt,10,Na2LiAc2CrInGa3Hg2,12,3.988337755203247,4.930315017700195,6.4177045822143555,105.09780883789062,99.94529724121094,111.59577178955078,19.72523320603703
eval_gen_partial_FM0_024.pt,11,CaPm2Mn(InPb)2,8,3.7419843673706055,3.946151494979859,7.767071723937988,87.46324920654298,89.96272277832031,96.69511413574219,15.01614391721909
eval_gen_partial_FM0_024.pt,12,Ba2Ce2InRh2C5,12,4.4621734619140625,5.4300432205200195,6.419530391693115,93.45990753173828,89.7244644165039,91.3048858642578,10.008735877878513
eval_gen_partial_FM0_024.pt,13,Ho2Mg3Ni6AgSn4,16,5.092214107513428,5.102384567260741,5.032977104187012,73.35009765625,64.43031311035156,60.78188323974609,21.675779245583765
eval_gen_partial_FM0_024.pt,14,SrEuNb4Al4C2S,13,4.385164737701416,5.572563171386719,5.950356483459473,119.17161560058594,98.23462677001953,89.29566955566408,10.26740673098411
eval_gen_partial_FM0_024.pt,15,Na2La4Mg2Tl2HgPbC,13,5.393702030181885,5.470394611358643,5.661681652069092,86.39635467529297,72.80776977539062,73.44759368896484,16.05654429963667
eval_gen_partial_FM0_024.pt,16,Pm2YMgGaCo4,9,5.123586654663086,5.130670070648193,5.114147663116455,60.36941146850585,60.38941955566405,59.95527648925783,12.313070657750085
eval_gen_partial_FM0_024.pt,17,Li3PmU2(InPd2)2,12,4.6404523849487305,6.073484420776367,6.105859756469727,117.72708129882814,88.1982650756836,90.16083526611328,14.149297574608417
eval_gen_partial_FM0_024.pt,18,KRb2NaNd2Mg4Ga2Ru2CI2N3,20,4.892510890960693,5.861314296722412,7.432653903961182,89.350830078125,87.45426177978516,89.17378234863281,9.89120077312403
eval_gen_partial_FM0_024.pt,19,SrLi2In3Sb2,8,4.5782856941223145,5.300032138824463,5.07004976272583,84.21174621582031,65.51838684082033,64.891357421875,11.339742278132471
eval_gen_partial_FM0_024.pt,20,Li2Pm2MgHg5N,11,3.908466100692749,6.310133457183839,6.749814033508301,98.85597229003906,87.81481170654297,91.03141784667969,13.59059144322791
eval_gen_partial_FM0_024.pt,21,Sr2LuMgIn3Ag2Hg,10,4.504609107971191,4.540021896362305,4.561747074127197,90.67763519287111,91.5120620727539,90.47198486328125,20.21659822653889
eval_gen_partial_FM0_024.pt,22,Dy2Y5Th2MgAlTlInGaAgBi3Pd5Ru2PbW2,28,5.934303283691406,7.870456695556641,9.329452514648438,93.59458923339844,95.39607238769531,89.70339202880861,14.258938318289855
eval_gen_partial_FM0_024.pt,23,CaEu2(MgSi)2,7,3.910343647003174,4.448904514312745,8.07999038696289,90.28108215332033,91.15823364257811,89.17029571533203,5.303339322010754
eval_gen_partial_FM0_024.pt,24,Tb4SmTiAlSn(GeC)2,12,5.054595470428467,5.1651835441589355,5.0828328132629395,89.22408294677736,89.61295318603517,91.04127502441406,14.38081846286165
eval_gen_partial_FM0_025.pt,1,YbPrAl2SiAgHg,7,5.083057880401611,5.758203029632569,5.595672607421875,81.0632553100586,65.18766021728516,63.64640808105469,8.787660437568475
eval_gen_partial_FM0_025.pt,2,Pm2Pr3DyZnIn7SiNi9,24,6.185816287994385,6.5042428970336905,9.688080787658691,83.50894927978516,89.65223693847656,86.8253936767578,9.87949030534932
eval_gen_partial_FM0_025.pt,3,Li4Ca2CeYMg2(CoSi)2,14,4.7675766944885245,5.732293605804444,6.279061794281006,91.67845153808594,89.80320739746095,89.8565139770508,5.417363690375734
eval_gen_partial_FM0_025.pt,4,LiMg4U4FeGe4(BiRh2)2,20,4.873562335968018,5.329921722412109,12.442011833190918,92.2762222290039,92.80673980712892,112.86616516113283,12.487898056425404
eval_gen_partial_FM0_025.pt,5,Ac2Fe(SnI)2,14,5.035730361938477,5.047622203826903,9.932783126831055,87.40946197509766,88.78437805175781,104.77601623535156,13.64028819988244
eval_gen_partial_FM0_025.pt,6,La4GdSiGeRu2C,10,4.797464370727539,4.914000034332275,5.32387113571167,76.69999694824219,80.02574157714844,83.56051635742188,14.227291310716264
eval_gen_partial_FM0_025.pt,7,Er3Mg(TlSb)2,8,3.7863261699676514,4.0088067054748535,4.51077127456665,104.4453125,101.81663513183595,90.67835998535156,30.21755186783935
eval_gen_partial_FM0_025.pt,8,RbAlCuCl2,10,3.0645427703857417,3.0593328475952144,4.646969318389893,88.62294006347656,87.56214141845705,90.34810638427734,18.843864267544014
eval_gen_partial_FM0_025.pt,9,Mg4TiGaHg4,10,5.372163772583008,5.945538520812987,6.209476470947266,106.59129333496094,83.30345916748048,86.18852233886719,8.996797556775377
eval_gen_partial_FM0_025.pt,10,Na2LiAc2CrInGa3Hg2,12,3.988337755203247,4.930315017700195,6.4177045822143555,105.09780883789062,99.94529724121094,111.59577178955078,19.72523320603703
eval_gen_partial_FM0_025.pt,11,CaPm2Mn(InPb)2,8,3.7419843673706055,3.946151494979859,7.767071723937988,87.46324920654298,89.96272277832031,96.69511413574219,15.01614391721909
eval_gen_partial_FM0_025.pt,12,Ba2Ce2InRh2C5,12,4.4621734619140625,5.4300432205200195,6.419530391693115,93.45990753173828,89.7244644165039,91.3048858642578,10.008735877878513
eval_gen_partial_FM0_025.pt,13,Ho2Mg3Ni6AgSn4,16,5.092214107513428,5.102384567260741,5.032977104187012,73.35009765625,64.43031311035156,60.78188323974609,21.675779245583765
eval_gen_partial_FM0_025.pt,14,SrEuNb4Al4C2S,13,4.385164737701416,5.572563171386719,5.950356483459473,119.17161560058594,98.23462677001953,89.29566955566408,10.26740673098411
eval_gen_partial_FM0_025.pt,15,Na2La4Mg2Tl2HgPbC,13,5.393702030181885,5.470394611358643,5.661681652069092,86.39635467529297,72.80776977539062,73.44759368896484,16.05654429963667
eval_gen_partial_FM0_025.pt,16,Pm2YMgGaCo4,9,5.123586654663086,5.130670070648193,5.114147663116455,60.36941146850585,60.38941955566405,59.95527648925783,12.313070657750085
eval_gen_partial_FM0_025.pt,17,Li3PmU2(InPd2)2,12,4.6404523849487305,6.073484420776367,6.105859756469727,117.72708129882814,88.1982650756836,90.16083526611328,14.149297574608417
eval_gen_partial_FM0_025.pt,18,KRb2NaNd2Mg4Ga2Ru2CI2N3,20,4.892510890960693,5.861314296722412,7.432653903961182,89.350830078125,87.45426177978516,89.17378234863281,9.89120077312403
eval_gen_partial_FM0_025.pt,19,SrLi2In3Sb2,8,4.5782856941223145,5.300032138824463,5.07004976272583,84.21174621582031,65.51838684082033,64.891357421875,11.339742278132471
eval_gen_partial_FM0_025.pt,20,Li2Pm2MgHg5N,11,3.908466100692749,6.310133457183839,6.749814033508301,98.85597229003906,87.81481170654297,91.03141784667969,13.59059144322791
eval_gen_partial_FM0_025.pt,21,Sr2LuMgIn3Ag2Hg,10,4.504609107971191,4.540021896362305,4.561747074127197,90.67763519287111,91.5120620727539,90.47198486328125,20.21659822653889
eval_gen_partial_FM0_025.pt,22,Dy2Y5Th2MgAlTlInGaAgBi3Pd5Ru2PbW2,28,5.934303283691406,7.870456695556641,9.329452514648438,93.59458923339844,95.39607238769531,89.70339202880861,14.258938318289855
eval_gen_partial_FM0_025.pt,23,CaEu2(MgSi)2,7,3.910343647003174,4.448904514312745,8.07999038696289,90.28108215332033,91.15823364257811,89.17029571533203,5.303339322010754
eval_gen_partial_FM0_025.pt,24,Tb4SmTiAlSn(GeC)2,12,5.054595470428467,5.1651835441589355,5.0828328132629395,89.22408294677736,89.61295318603517,91.04127502441406,14.38081846286165
eval_gen_partial_FM0_025.pt,25,PrMgGaNi2Sn5Sb4,14,6.261667251586914,6.849698543548583,6.788190841674805,111.3302764892578,90.28749084472656,90.2469711303711,8.77375885144739